chemcompute.org
{'UTCtimestamp': '2022-10-30T20:07:16.810279', 'cluster': 'jetstream2', 'clusterJobNumber': '141367', 'status': 'RUNNING', 'nodeList': 'chemcompute-node-0'}
----- GAMESS execution script 'rungms' -----
This job is running on host chemcompute-node-0.novalocal
under operating system Linux at Sun Oct 30 20:07:20 UTC 2022
SLURM has assigned the following compute nodes to this run:
Available scratch disk space (Kbyte units) at beginning of the job is
Filesystem     1K-blocks     Used Available Use% Mounted on
/dev/sda1       62903276 11765156  51138120  19% /
GAMESS temporary binary files will be written to /scratch/141367
GAMESS supplementary output files will be written to /data/slurm/48/483417
Copying input file 483417.inp to your run's scratch directory...
The generated host list is
chemcompute-node-0.novalocal

 Distributed Data Interface kickoff program.
 Initiating 1 compute processes on 1 nodes to run the following command:
 /data/gamess-2019R1-avx2-ddi/gamess.00.x 483417 

          ******************************************************
          *         GAMESS VERSION = 30 JUN 2019 (R1)          *
          *             FROM IOWA STATE UNIVERSITY             *
          * M.W.SCHMIDT, K.K.BALDRIDGE, J.A.BOATZ, S.T.ELBERT, *
          *   M.S.GORDON, J.H.JENSEN, S.KOSEKI, N.MATSUNAGA,   *
          *          K.A.NGUYEN, S.J.SU, T.L.WINDUS,           *
          *       TOGETHER WITH M.DUPUIS, J.A.MONTGOMERY       *
          *         J.COMPUT.CHEM.  14, 1347-1363(1993)        *
          **************** 64 BIT INTEL VERSION ****************

  SINCE 1993, STUDENTS AND POSTDOCS WORKING AT IOWA STATE UNIVERSITY
  AND ALSO IN THEIR VARIOUS JOBS AFTER LEAVING ISU HAVE MADE IMPORTANT
  CONTRIBUTIONS TO THE CODE:
     IVANA ADAMOVIC, CHRISTINE AIKENS, YURI ALEXEEV, POOJA ARORA,
     ANDREY ASADCHEV, ROB BELL, PRADIPTA BANDYOPADHYAY, JONATHAN BENTZ,
     COLLEEN BERTONI, BRETT BODE, KURT BRORSEN, CALEB CARLIN, GALINA CHABAN,
     WEI CHEN, CHEOL HO CHOI, PAUL DAY, ALBERT DEFUSCO, NUWAN DESILVA,
     TIM DUDLEY, DMITRI FEDOROV, ALEX FINDLATER, GRAHAM FLETCHER, 
     MARK FREITAG, KURT GLAESEMANN, ANASTASIA GUNINA,
     DAN KEMP, GRANT MERRILL, NORIYUKI MINEZAWA, JONATHAN MULLIN,
     TAKESHI NAGATA, SEAN NEDD, HEATHER NETZLOFF, BOSILJKA NJEGIC, RYAN OLSON,
     MIKE PAK, BUU PHAM,
     SPENCER PRUITT, LUKE ROSKOP, JIM SHOEMAKER, LYUDMILA SLIPCHENKO,
     TONY SMITH, SAROM SOK LEANG, JIE SONG, TETSUYA TAKETSUGU, SIMON WEBB,
     PENG XU, SOOHAENG YOO, FEDERICO ZAHARIEV

  ADDITIONAL CODE HAS BEEN PROVIDED BY COLLABORATORS IN OTHER GROUPS:
     IOWA STATE UNIVERSITY:
          JOE IVANIC, AARON WEST, LAIMUTIS BYTAUTAS, KLAUS RUEDENBERG
     UNIVERSITY OF TOKYO: KIMIHIKO HIRAO, TAKAHITO NAKAJIMA,
          TAKAO TSUNEDA, MUNEAKI KAMIYA, SUSUMU YANAGISAWA,
          KIYOSHI YAGI, MAHITO CHIBA, SEIKEN TOKURA, NAOAKI KAWAKAMI
     UNIVERSITY OF AARHUS: FRANK JENSEN
     UNIVERSITY OF IOWA: VISVALDAS KAIRYS, HUI LI
     NATIONAL INST. OF STANDARDS AND TECHNOLOGY: WALT STEVENS, DAVID GARMER
     UNIVERSITY OF PISA: BENEDETTA MENNUCCI, JACOPO TOMASI
     UNIVERSITY OF MEMPHIS: HENRY KURTZ, PRAKASHAN KORAMBATH
     UNIVERSITY OF ALBERTA: TOBY ZENG, MARIUSZ KLOBUKOWSKI
     UNIVERSITY OF NEW ENGLAND: MARK SPACKMAN
     MIE UNIVERSITY: HIROAKI UMEDA
     NAT. INST. OF ADVANCED INDUSTRIAL SCIENCE AND TECHNOLOGY: KAZUO KITAURA
     MICHIGAN STATE UNIVERSITY:
          KAROL KOWALSKI, MARTA WLOCH, JEFFREY GOUR, JESSE LUTZ,
          WEI LI, JUN SHEN, J. EMILIANO DEUSTUA, PIOTR PIECUCH
     UNIVERSITY OF MINNESOTA:
          YINAN SHU
     UNIVERSITY OF SILESIA: MONIKA MUSIAL, STANISLAW KUCHARSKI
     FACULTES UNIVERSITAIRES NOTRE-DAME DE LA PAIX:
          OLIVIER QUINET, BENOIT CHAMPAGNE
     UNIVERSITY OF CALIFORNIA - SANTA BARBARA: BERNARD KIRTMAN
     INSTITUTE FOR MOLECULAR SCIENCE:
          KAZUYA ISHIMURA, MICHIO KATOUDA, AND SHIGERU NAGASE
     UNIVERSITY OF NOTRE DAME: ANNA POMOGAEVA, DAN CHIPMAN
     KYUSHU UNIVERSITY:
          HARUYUKI NAKANO,
          FENG LONG GU, JACEK KORCHOWIEC, MARCIN MAKOWSKI, AND YURIKO AOKI,
          HIROTOSHI MORI AND EISAKU MIYOSHI
     PENNSYLVANIA STATE UNIVERSITY:
          TZVETELIN IORDANOV, CHET SWALINA, JONATHAN SKONE,
          SHARON HAMMES-SCHIFFER
     WASEDA UNIVERSITY:
          MASATO KOBAYASHI, TOMOKO AKAMA, TSUGUKI TOUMA,
          TAKESHI YOSHIKAWA, YASUHIRO IKABATA, JUNJI SEINO,
          YUYA NAKAJIMA, HIROMI NAKAI
     NANJING UNIVERSITY: SHUHUA LI
     UNIVERSITY OF NEBRASKA:
          PEIFENG SU, DEJUN SI, NANDUN THELLAMUREGE, YALI WANG, HUI LI
     UNIVERSITY OF ZURICH: ROBERTO PEVERATI, KIM BALDRIDGE
     N. COPERNICUS UNIVERSITY AND JACKSON STATE UNIVERSITY:
          MARIA BARYSZ
     UNIVERSITY OF COPENHAGEN: Jimmy Kromann, CASPER STEINMANN
     TOKYO INSTITUTE OF TECHNOLOGY: HIROYA NAKATA
     NAGOYA UNIVERSITY: YOSHIO NISHIMOTO, STEPHAN IRLE
     MOSCOW STATE UNIVERSITY: VLADIMIR MIRONOV
     A.N.NESMEYANOV INSTITUTE OF ORGANOELEMENT COMPOUNDS OF RUSSIAN ACADEMY OF SCIENCES:
          IGOR S. GERASIMOV

 EXECUTION OF GAMESS BEGUN Sun Oct 30 20:07:20 2022

            ECHO OF THE FIRST FEW INPUT CARDS -
 INPUT CARD>!                                                                               
 INPUT CARD>!   GAMESS Calculation input file                                               
 INPUT CARD>!   practica 30/10/22                                                           
 INPUT CARD>!                                                                               
 INPUT CARD> $CONTRL SCFTYP=RHF MAXIT=200 RUNTYP=OPTIMIZE                                   
 INPUT CARD>         COORD=UNIQUE MULT=1                                                    
 INPUT CARD>         ICHARG=0                                                               
 INPUT CARD>         DFTTYP=B3LYP                                                           
 INPUT CARD>         MOLPLT=.FALSE. PLTORB=.FALSE.  $END                                    
 INPUT CARD> $SYSTEM TIMLIM=2879 MWORDS=250  $END                                           
 INPUT CARD>                                                                                
 INPUT CARD> $FORCE METHOD=SEMINUM NVIB=2 $END                                              
 INPUT CARD> $STATPT OPTTOL=0.0005 NSTEP=999 $END                                           
 INPUT CARD> $STATPT IHREP=0 HSSEND=.TRUE.  $END                                            
 INPUT CARD>                                                                                
 INPUT CARD> $DFT    METHOD=GRID  NLEB=590  $END                                            
 INPUT CARD>                                                                                
 INPUT CARD> $BASIS  GBASIS=N31 NGAUSS=6                                                    
 INPUT CARD>         NDFUNC=1   NPFUNC=0  $END                                              
 INPUT CARD>                                                                                
 INPUT CARD> $SCF    DIRSCF=.T. $END                                                        
 INPUT CARD> $GUESS  GUESS=HUCKEL  $END                                                     
 INPUT CARD>                                                                                
 INPUT CARD> $DATA                                                                          
 INPUT CARD>   practica 30/10/22                                                            
 INPUT CARD>  Cs                                                                            
 INPUT CARD>                                                                                
 INPUT CARD>C     6.0     0.35     0.33     0.00                                            
 INPUT CARD>C     6.0    -0.68     0.71     1.07                                            
 INPUT CARD>C     6.0    -1.43     1.52    -0.00                                            
 INPUT CARD>Cl   17.0     0.98    -1.32     0.00                                            
 INPUT CARD>H     1.0     1.21     1.01     0.00                                            
 INPUT CARD>H     1.0    -0.29     1.30     1.91                                            
 INPUT CARD>H     1.0    -1.26    -0.12     1.47                                            
 INPUT CARD>H     1.0    -1.18     2.59     0.00                                            
 INPUT CARD>H     1.0    -2.52     1.40    -0.00                                            
 INPUT CARD> $END                                                                           
 INPUT CARD>                                                                                
 INPUT CARD>                                                                                
 INPUT CARD>! Customizations after this line are persisted when using Do More Calculations  
  250000000 WORDS OF MEMORY AVAILABLE

     BASIS OPTIONS
     -------------
     GBASIS=N31          IGAUSS=       6      POLAR=POPN31  
     NDFUNC=       1     NFFUNC=       0     DIFFSP=       F
     NPFUNC=       0      DIFFS=       F     BASNAM=        


     RUN TITLE
     ---------
    practica 30/10/22                                                            

 THE POINT GROUP OF THE MOLECULE IS CS      
 THE ORDER OF THE PRINCIPAL AXIS IS     0

 ATOM      ATOMIC                      COORDINATES (BOHR)
           CHARGE         X                   Y                   Z
 C           6.0     0.6614040957        0.6236095759        0.0000000000
 C           6.0    -1.2850136717        1.3417054513       -2.0220068069
 C           6.0    -1.2850136717        1.3417054513        2.0220068069
 C           6.0    -2.7023081624        2.8723835013        0.0000000000
 CL         17.0     1.8519314680       -2.4944383038        0.0000000000
 H           1.0     2.2865684451        1.9086232476        0.0000000000
 H           1.0    -0.5480205364        2.4566437840       -3.6093766365
 H           1.0    -0.5480205364        2.4566437840        3.6093766365
 H           1.0    -2.3810547445       -0.2267671185       -2.7778972020
 H           1.0    -2.3810547445       -0.2267671185        2.7778972020
 H           1.0    -2.2298766655        4.8943903082        0.0000000000
 H           1.0    -4.7621094891        2.6456163828        0.0000000000

          INTERNUCLEAR DISTANCES (ANGS.)
          ------------------------------

                1 C          2 C          3 C          4 C          5 CL    

   1 C       0.0000000    1.5330362 *  1.5330362 *  2.1411446 *  1.7661823 *
   2 C       1.5330362 *  0.0000000    2.1400000 *  1.5373679 *  2.8322076 *
   3 C       1.5330362 *  2.1400000 *  0.0000000    1.5373679 *  2.8322076 *
   4 C       2.1411446 *  1.5373679 *  1.5373679 *  0.0000000    3.7247416  
   5 CL      1.7661823 *  2.8322076 *  2.8322076 *  3.7247416    0.0000000  
   6 H       1.0963576 *  2.1924872 *  2.1924872 *  2.6888101 *  2.3413244 *
   7 H       2.2357549 *  1.0980892 *  3.0627765    2.2351957 *  3.4821545  
   8 H       2.2357549 *  3.0627765    1.0980892 *  2.2351957 *  3.4821545  
   9 H       2.2260952 *  1.0887148 *  2.7343921 *  2.2089364 *  2.9357282 *
  10 H       2.2260952 *  2.7343921 *  1.0887148 *  2.2089364 *  2.9357282 *
  11 H       2.7291940 *  2.2202027 *  2.2202027 *  1.0988175 *  4.4669565  
  12 H       3.0629724    2.2375433 *  2.2375433 *  1.0965856 *  4.4326516  

                6 H          7 H          8 H          9 H         10 H     

   1 C       1.0963576 *  2.2357549 *  2.2357549 *  2.2260952 *  2.2260952 *
   2 C       2.1924872 *  1.0980892 *  3.0627765    1.0887148 *  2.7343921 *
   3 C       2.1924872 *  3.0627765    1.0980892 *  2.7343921 *  1.0887148 *
   4 C       2.6888101 *  2.2351957 *  2.2351957 *  2.2089364 *  2.2089364 *
   5 CL      2.3413244 *  3.4821545    3.4821545    2.9357282 *  2.9357282 *
   6 H       0.0000000    2.4458536 *  2.4458536 *  3.0884786    3.0884786  
   7 H       2.4458536 *  0.0000000    3.8200000    1.7750775 *  3.7923212  
   8 H       2.4458536 *  3.8200000    0.0000000    3.7923212    1.7750775 *
   9 H       3.0884786    1.7750775 *  3.7923212    0.0000000    2.9400000 *
  10 H       3.0884786    3.7923212    1.7750775 *  2.9400000 *  0.0000000  
  11 H       2.8650480 *  2.4706882 *  2.4706882 *  3.0840558    3.0840558  
  12 H       3.7503333    2.9378564 *  2.9378564 *  2.4614833 *  2.4614833 *

               11 H         12 H     

   1 C       2.7291940 *  3.0629724  
   2 C       2.2202027 *  2.2375433 *
   3 C       2.2202027 *  2.2375433 *
   4 C       1.0988175 *  1.0965856 *
   5 CL      4.4669565    4.4326516  
   6 H       2.8650480 *  3.7503333  
   7 H       2.4706882 *  2.9378564 *
   8 H       2.4706882 *  2.9378564 *
   9 H       3.0840558    2.4614833 *
  10 H       3.0840558    2.4614833 *
  11 H       0.0000000    1.7921216 *
  12 H       1.7921216 *  0.0000000  

  * ... LESS THAN  3.000


     ATOMIC BASIS SET
     ----------------
 THE CONTRACTED PRIMITIVE FUNCTIONS HAVE BEEN UNNORMALIZED
 THE CONTRACTED BASIS FUNCTIONS ARE NOW NORMALIZED TO UNITY

  SHELL TYPE  PRIMITIVE        EXPONENT          CONTRACTION COEFFICIENT(S)

 C         

      1   S       1          3047.5248800    0.001834737132
      1   S       2           457.3695180    0.014037322813
      1   S       3           103.9486850    0.068842622264
      1   S       4            29.2101553    0.232184443216
      1   S       5             9.2866630    0.467941348435
      1   S       6             3.1639270    0.362311985337

      2   L       7             7.8682723   -0.119332419775    0.068999066591
      2   L       8             1.8812885   -0.160854151696    0.316423960957
      2   L       9             0.5442493    1.143456437840    0.744308290898

      3   L      10             0.1687145    1.000000000000    1.000000000000

      4   D      11             0.8000000    1.000000000000

 C         

      9   S      12          3047.5248800    0.001834737132
      9   S      13           457.3695180    0.014037322813
      9   S      14           103.9486850    0.068842622264
      9   S      15            29.2101553    0.232184443216
      9   S      16             9.2866630    0.467941348435
      9   S      17             3.1639270    0.362311985337

     10   L      18             7.8682723   -0.119332419775    0.068999066591
     10   L      19             1.8812885   -0.160854151696    0.316423960957
     10   L      20             0.5442493    1.143456437840    0.744308290898

     11   L      21             0.1687145    1.000000000000    1.000000000000

     12   D      22             0.8000000    1.000000000000

 C         

     13   S      23          3047.5248800    0.001834737132
     13   S      24           457.3695180    0.014037322813
     13   S      25           103.9486850    0.068842622264
     13   S      26            29.2101553    0.232184443216
     13   S      27             9.2866630    0.467941348435
     13   S      28             3.1639270    0.362311985337

     14   L      29             7.8682723   -0.119332419775    0.068999066591
     14   L      30             1.8812885   -0.160854151696    0.316423960957
     14   L      31             0.5442493    1.143456437840    0.744308290898

     15   L      32             0.1687145    1.000000000000    1.000000000000

     16   D      33             0.8000000    1.000000000000

 CL        

     17   S      34         25180.1000000    0.001832959848
     17   S      35          3780.3500000    0.014034198835
     17   S      36           860.4740000    0.069097394263
     17   S      37           242.1450000    0.237451980285
     17   S      38            77.3349000    0.483033959896
     17   S      39            26.2470000    0.339855971783

     18   L      40           491.7650000   -0.002297391417    0.003989400879
     18   L      41           116.9840000   -0.030713718938    0.030317706682
     18   L      42            37.4153000   -0.112528069386    0.129880028625
     18   L      43            13.7834000    0.045016327757    0.327951072278
     18   L      44             5.4521500    0.589353363399    0.453527099954
     18   L      45             2.2258800    0.465206286849    0.252154055573

     19   L      46             3.1864900   -0.251831288046   -0.014299314719
     19   L      47             1.1442700    0.061589315012    0.323572333073
     19   L      48             0.4203770    1.060185422549    0.743507765337

     20   L      49             0.1426570    1.000000000000    1.000000000000

     21   D      50             0.7500000    1.000000000000

 H         

     22   S      51            18.7311370    0.033494604338
     22   S      52             2.8253944    0.234726953484
     22   S      53             0.6401217    0.813757326146

     23   S      54             0.1612778    1.000000000000

 H         

     26   S      55            18.7311370    0.033494604338
     26   S      56             2.8253944    0.234726953484
     26   S      57             0.6401217    0.813757326146

     27   S      58             0.1612778    1.000000000000

 H         

     30   S      59            18.7311370    0.033494604338
     30   S      60             2.8253944    0.234726953484
     30   S      61             0.6401217    0.813757326146

     31   S      62             0.1612778    1.000000000000

 H         

     32   S      63            18.7311370    0.033494604338
     32   S      64             2.8253944    0.234726953484
     32   S      65             0.6401217    0.813757326146

     33   S      66             0.1612778    1.000000000000

 H         

     34   S      67            18.7311370    0.033494604338
     34   S      68             2.8253944    0.234726953484
     34   S      69             0.6401217    0.813757326146

     35   S      70             0.1612778    1.000000000000

 TOTAL NUMBER OF BASIS SET SHELLS             =   35
 NUMBER OF CARTESIAN GAUSSIAN BASIS FUNCTIONS =   93
 NUMBER OF ELECTRONS                          =   48
 CHARGE OF MOLECULE                           =    0
 SPIN MULTIPLICITY                            =    1
 NUMBER OF OCCUPIED ORBITALS (ALPHA)          =   24
 NUMBER OF OCCUPIED ORBITALS (BETA )          =   24
 TOTAL NUMBER OF ATOMS                        =   12
 THE NUCLEAR REPULSION ENERGY IS      222.0128668262

 SELECTED MURRAY-HANDY-LAMING RADIAL GRID

 LEGACY BECKE'S FUZZY CELL METHOD

 SELECTED ORIGINAL BECKE'S PARTITION FUNCTION

     LEBEDEV GRID-BASED DFT OPTIONS
     ------------------------------
     DFTTYP=B3LYP   
     NRAD  =      96     NLEB  =     590
     NRAD0 =      24     NLEB0 =     110
     SWOFF =    5.00E-03 (PURE SCF -> DFT)
     SWITCH=    3.00E-04 (COARSE -> TIGHT GRID)
     THRESH=    0.00E+00 GTHRE=    1.00E+00

 GRIMME'S EMPIRICAL DISPERSION CORRECTION= F

     $CONTRL OPTIONS
     ---------------
 SCFTYP=RHF          RUNTYP=OPTIMIZE     EXETYP=RUN     
 MPLEVL=       0     CITYP =NONE         CCTYP =NONE         VBTYP =NONE    
 DFTTYP=B3LYP        TDDFT =NONE    
 MULT  =       1     ICHARG=       0     NZVAR =       0     COORD =UNIQUE  
 PP    =NONE         RELWFN=NONE         LOCAL =NONE         NUMGRD=       F
 ISPHER=      -1     NOSYM =       0     MAXIT =     200     UNITS =ANGS    
 PLTORB=       F     MOLPLT=       F     AIMPAC=       F     FRIEND=        
 NPRINT=       7     IREST =       0     GEOM  =INPUT   
 NORMF =       0     NORMP =       0     ITOL  =      20     ICUT  =       9
 INTTYP=BEST         GRDTYP=BEST         QMTTOL= 1.0E-06

     $SYSTEM OPTIONS
     ---------------
  REPLICATED MEMORY=   250000000 WORDS (ON EVERY NODE).
 DISTRIBUTED MEMDDI=           0 MILLION WORDS IN AGGREGATE,
 MEMDDI DISTRIBUTED OVER   1 PROCESSORS IS           0 WORDS/PROCESSOR.
 TOTAL MEMORY REQUESTED ON EACH PROCESSOR=   250000000 WORDS.
 TIMLIM=        2879.00 MINUTES, OR       2.0 DAYS.
 PARALL= F  BALTYP=  DLB     KDIAG=    0  COREFL= F
 MXSEQ2=     300 MXSEQ3=     150  mem10=         0

          ----------------
          PROPERTIES INPUT
          ----------------

     MOMENTS            FIELD           POTENTIAL          DENSITY
 IEMOM =       1   IEFLD =       0   IEPOT =       0   IEDEN =       0
 WHERE =COMASS     WHERE =NUCLEI     WHERE =NUCLEI     WHERE =NUCLEI  
 OUTPUT=BOTH       OUTPUT=BOTH       OUTPUT=BOTH       OUTPUT=BOTH    
 IEMINT=       0   IEFINT=       0                     IEDINT=       0
                                                       MORB  =       0
          EXTRAPOLATION IN EFFECT
          DIIS IN EFFECT
 ORBITAL PRINTING OPTION: NPREO=     1    93     2     1

     -------------------------------
     INTEGRAL TRANSFORMATION OPTIONS
     -------------------------------
     NWORD  =            0
     CUTOFF = 1.0E-09     MPTRAN =       0
     DIRTRF =       T     AOINTS =DUP     

          ----------------------
          INTEGRAL INPUT OPTIONS
          ----------------------
 NOPK  =       1 NORDER=       0 SCHWRZ=       T

     ------------------------------------------
     THE POINT GROUP IS CS , NAXIS= 0, ORDER= 2
     ------------------------------------------

     DIMENSIONS OF THE SYMMETRY SUBSPACES ARE
 A'  =   61     A'' =   32

 ..... DONE SETTING UP THE RUN .....
 STEP CPU TIME =     0.01 TOTAL CPU TIME =          0.0 (      0.0 MIN)
 TOTAL WALL CLOCK TIME=          0.0 SECONDS, CPU UTILIZATION IS    50.00%


          -----------------------------
          STATIONARY POINT LOCATION RUN
          -----------------------------

 OBTAINING INITIAL HESSIAN, HESS=GUESS   
 CARTESIAN COORDINATE OPTIMIZATION USING BADGER'S RULE FORCE CONSTANT GUESS

          PARAMETERS CONTROLLING GEOMETRY SEARCH ARE
          METHOD =QA                  UPHESS =BFGS    
          NNEG   =         0          NFRZ   =         0
          NSTEP  =       999          IFOLOW =         1
          HESS   =GUESS               RESTAR =         F
          IHREP  =         0          HSSEND =         T
          NPRT   =         0          NPUN   =         0
          OPTTOL = 5.000E-04          RMIN   = 1.500E-03
          RMAX   = 1.000E-01          RLIM   = 7.000E-02
          DXMAX  = 3.000E-01          PURIFY =         F
          MOVIE  =         F          TRUPD  =         T
          TRMAX  = 5.000E-01          TRMIN  = 5.000E-02
          ITBMAT =         5          STPT   =         F
          STSTEP = 1.000E-02          PROJCT=          T

 BEGINNING GEOMETRY SEARCH POINT NSERCH=   0 ...

 COORDINATES OF SYMMETRY UNIQUE ATOMS (ANGS)
   ATOM   CHARGE       X              Y              Z
 ------------------------------------------------------------
 C           6.0   0.3500000000   0.3300000000   0.0000000000
 C           6.0  -0.6800000000   0.7100000000   1.0700000000
 C           6.0  -1.4300000000   1.5200000000   0.0000000000
 CL         17.0   0.9800000000  -1.3200000000   0.0000000000
 H           1.0   1.2100000000   1.0100000000   0.0000000000
 H           1.0  -0.2900000000   1.3000000000   1.9100000000
 H           1.0  -1.2600000000  -0.1200000000   1.4700000000
 H           1.0  -1.1800000000   2.5900000000   0.0000000000
 H           1.0  -2.5200000000   1.4000000000   0.0000000000
 COORDINATES OF ALL ATOMS ARE (ANGS)
   ATOM   CHARGE       X              Y              Z
 ------------------------------------------------------------
 C           6.0   0.3500000000   0.3300000000   0.0000000000
 C           6.0  -0.6800000000   0.7100000000  -1.0700000000
 C           6.0  -0.6800000000   0.7100000000   1.0700000000
 C           6.0  -1.4300000000   1.5200000000   0.0000000000
 CL         17.0   0.9800000000  -1.3200000000   0.0000000000
 H           1.0   1.2100000000   1.0100000000   0.0000000000
 H           1.0  -0.2900000000   1.3000000000  -1.9100000000
 H           1.0  -0.2900000000   1.3000000000   1.9100000000
 H           1.0  -1.2600000000  -0.1200000000  -1.4700000000
 H           1.0  -1.2600000000  -0.1200000000   1.4700000000
 H           1.0  -1.1800000000   2.5900000000   0.0000000000
 H           1.0  -2.5200000000   1.4000000000   0.0000000000

          ********************
          1 ELECTRON INTEGRALS
          ********************
 ...... END OF ONE-ELECTRON INTEGRALS ......
 STEP CPU TIME =     0.00 TOTAL CPU TIME =          0.0 (      0.0 MIN)
 TOTAL WALL CLOCK TIME=          0.0 SECONDS, CPU UTILIZATION IS    25.00%

          -------------
          GUESS OPTIONS
          -------------
          GUESS =HUCKEL            NORB  =       0          NORDER=       0
          MIX   =       F          PRTMO =       F          PUNMO =       F
          TOLZ  = 1.0E-08          TOLE  = 1.0E-05
          SYMDEN=       F          PURIFY=       F

 INITIAL GUESS ORBITALS GENERATED BY HUCKEL   ROUTINE.
 HUCKEL GUESS REQUIRES     77109 WORDS.

 SYMMETRIES FOR INITIAL GUESS ORBITALS FOLLOW.   BOTH SET(S).
    24 ORBITALS ARE OCCUPIED (    9 CORE ORBITALS).
    10=A'      11=A'      12=A''     13=A'      14=A'      15=A'      16=A'  
    17=A''     18=A''     19=A'      20=A'      21=A''     22=A'      23=A'  
    24=A''     25=A'      26=A''     27=A'      28=A''     29=A'      30=A'  
    31=A'      32=A'      33=A'      34=A'  
 ...... END OF INITIAL ORBITAL SELECTION ......
 STEP CPU TIME =     0.05 TOTAL CPU TIME =          0.1 (      0.0 MIN)
 TOTAL WALL CLOCK TIME=          0.1 SECONDS, CPU UTILIZATION IS    75.00%

                    ----------------------
                    AO INTEGRAL TECHNOLOGY
                    ----------------------
     S,P,L SHELL ROTATED AXIS INTEGRALS, REPROGRAMMED BY
        KAZUYA ISHIMURA (IMS) AND JOSE SIERRA (SYNSTAR).
     S,P,D,L SHELL ROTATED AXIS INTEGRALS PROGRAMMED BY
        KAZUYA ISHIMURA (INSTITUTE FOR MOLECULAR SCIENCE).
     S,P,D,F,G SHELL TO TOTAL QUARTET ANGULAR MOMENTUM SUM 5,
        ERIC PROGRAM BY GRAHAM FLETCHER (ELORET AND NASA ADVANCED
        SUPERCOMPUTING DIVISION, AMES RESEARCH CENTER).
     S,P,D,F,G,L SHELL GENERAL RYS QUADRATURE PROGRAMMED BY
        MICHEL DUPUIS (PACIFIC NORTHWEST NATIONAL LABORATORY).

          --------------------
          2 ELECTRON INTEGRALS
          --------------------

 DIRECT SCF METHOD SKIPS INTEGRAL STORAGE ON DISK.
 DIRECT TRANSFORMATION SKIPS AO INTEGRAL STORAGE ON DISK.
  ...... END OF TWO-ELECTRON INTEGRALS .....
 STEP CPU TIME =     0.01 TOTAL CPU TIME =          0.1 (      0.0 MIN)
 TOTAL WALL CLOCK TIME=          0.1 SECONDS, CPU UTILIZATION IS    70.00%

          --------------------------
             R-B3LYP SCF CALCULATION
          --------------------------

     NUCLEAR ENERGY =       222.0128668262
     MAXIT =  200     NPUNCH=    2
     EXTRAP=T  DAMP=F  SHIFT=F  RSTRCT=F  DIIS=T  DEM=F  SOSCF=F
         DENSITY MATRIX CONVERGENCE THRESHOLD=  2.00E-05
     COARSE -> FINE DFT GRID SWITCH THRESHOLD=  3.00E-04 (SWITCH IN $DFT)
                   HF -> DFT SWITCH THRESHOLD=  5.00E-03 (SWOFF IN $DFT)
     MEMORY REQUIRED FOR RHF ITERS=    888385 WORDS.

 DIRECT SCF CALCULATION, SCHWRZ=T   FDIFF=T,  DIRTHR=  0.00E+00 NITDIR=10
 SCHWARZ INEQUALITY OVERHEAD:      4348 INTEGRALS, T=        0.00

 DFT CODE IS SWITCHING FROM THE FINE GRID NRAD= 96,  NLEB=  590
                      TO THE COARSE GRID NRAD0= 24, NLEB0=  110

     EXCHANGE FUNCTIONAL   =B88&HFX   
     CORRELATION FUNCTIONAL=LYP88&VWN5
     DFT THRESHOLD         =.589E-08
     GRID CHANGE THRESHOLD =.300E-03
 FOR AN EULER-MACLAURIN QUADRATURE USING  96 RADIAL POINTS:
 SMALLEST GAUSSIAN PRIMITIVE EXPONENT=        0.1426570000 OF TYPE -P-
 ON ATOM NUMBER   5 HAS RADIAL NORMALIZATION=  1.000000
  LARGEST GAUSSIAN PRIMITIVE EXPONENT=    25180.1000000000 OF TYPE -S-
 ON ATOM NUMBER   5 HAS RADIAL NORMALIZATION=  1.000000
 DFT IS SWITCHED OFF, PERFORMING PURE SCF UNTIL SWOFF THRESHOLD IS REACHED.

                                                                                   NONZERO     BLOCKS
 ITER EX DEM     TOTAL ENERGY        E CHANGE  DENSITY CHANGE    DIIS ERROR      INTEGRALS    SKIPPED
   1  0  0     -614.3545773588  -614.3545773588   0.190534339   2.486276261        4477889      11958
          * * *   INITIATING DIIS PROCEDURE   * * *
   2  1  0     -614.9433353640    -0.5887580052   0.106941497   0.092944245        4474640      12859
   3  2  0     -614.9854364745    -0.0421011105   0.040430237   0.050833568        4461846      14015
   4  3  0     -615.0010224327    -0.0155859582   0.014663776   0.005666022        4440228      15582
   5  4  0     -615.0016631376    -0.0006407049   0.003175951   0.001030127        4391891      17543
 CONVERGED TO SWOFF, SO DFT CALCULATION IS NOW SWITCHED ON.
          * * *   INITIATING DIIS PROCEDURE   * * *
   6  5  0     -616.6028596470    -1.6011965094   0.152192686   0.175246256        4479457      11967
   7  6  0     -616.6221709271    -0.0193112802   0.032874882   0.024872521        4460667      14058
   8  7  0     -616.6207856207     0.0013853065   0.020983205   0.029597421        4434588      15540
   9  8  0     -616.6253905229    -0.0046049023   0.005938002   0.002004881        4416118      16444
  10  9  0     -616.6254234089    -0.0000328860   0.000850547   0.000432915        4311501      20984
  11 10  0     -616.6254252555    -0.0000018466   0.000259955   0.000161143        4209777      23769
 DFT CODE IS SWITCHING BACK TO THE FINE GRID
          * * *   INITIATING DIIS PROCEDURE   * * *
  12 11  0     -616.6323593712    -0.0069341157   0.004918400   0.001610613        4481282      11881
  13 12  0     -616.6323747318    -0.0000153606   0.001390820   0.000334193        4335307      19888
  14 13  0     -616.6323741736     0.0000005583   0.000753909   0.000460540        4234156      23026
  15 14  0     -616.6323760441    -0.0000018705   0.000076618   0.000033764        4194957      24253
  16 15  0     -616.6323760514    -0.0000000073   0.000026130   0.000008527        3984753      30613
  17 16  0     -616.6323760521    -0.0000000007   0.000005107   0.000003724        3826486      35575

          -----------------
          DENSITY CONVERGED
          -----------------
     TIME TO FORM FOCK OPERATORS=      13.3 SECONDS (       0.8 SEC/ITER)
     FOCK TIME ON FIRST ITERATION=       0.2, LAST ITERATION=       1.8
     TIME TO SOLVE SCF EQUATIONS=       0.1 SECONDS (       0.0 SEC/ITER)

 FINAL R-B3LYP ENERGY IS     -616.6323760521 AFTER  17 ITERATIONS
 DFT EXCHANGE + CORRELATION ENERGY =       -42.2778018812
 TOTAL ELECTRON NUMBER             =        47.9999797548

          ------------
          EIGENVECTORS
          ------------

                      1          2          3          4          5
                 -101.5233   -10.2402   -10.1885   -10.1885   -10.1876
                     A'         A'         A'         A''        A'  
    1  C  1  S   -0.000018   0.993161  -0.002995   0.000000   0.000426
    2  C  1  S    0.000017   0.050097  -0.000575   0.000000   0.000113
    3  C  1  X    0.000029   0.000030   0.000106   0.000000  -0.000054
    4  C  1  Y   -0.000057  -0.000559   0.000041   0.000000  -0.000071
    5  C  1  Z    0.000000   0.000000   0.000000   0.000118   0.000000
    6  C  1  S    0.000481  -0.021440   0.008272   0.000000  -0.003090
    7  C  1  X   -0.000173   0.002744  -0.002577   0.000000   0.001157
    8  C  1  Y    0.000032   0.000173   0.000909   0.000000   0.000412
    9  C  1  Z    0.000000   0.000000   0.000000  -0.002358   0.000000
   10  C  1 XX   -0.000024  -0.008733  -0.000484   0.000000   0.000167
   11  C  1 YY   -0.000082  -0.008718  -0.000244   0.000000   0.000146
   12  C  1 ZZ   -0.000023  -0.008847  -0.000434   0.000000   0.000051
   13  C  1 XY    0.000016   0.000102   0.000169   0.000000  -0.000103
   14  C  1 XZ    0.000000   0.000000   0.000000  -0.000195   0.000000
   15  C  1 YZ    0.000000   0.000000   0.000000   0.000108   0.000000
   16  C  2  S    0.000003   0.001823   0.694607   0.702160  -0.102762
   17  C  2  S    0.000044  -0.000381   0.035151   0.035620  -0.005533
   18  C  2  X   -0.000010  -0.000011   0.000037  -0.000004   0.000031
   19  C  2  Y    0.000011  -0.000003   0.000016  -0.000014  -0.000077
   20  C  2  Z   -0.000013  -0.000009   0.000196   0.000195  -0.000077
   21  C  2  S   -0.000259   0.007186  -0.014279  -0.013149   0.008477
   22  C  2  X   -0.000079   0.001382  -0.000550   0.000084  -0.000972
   23  C  2  Y    0.000043  -0.000761  -0.000414   0.000119   0.001354
   24  C  2  Z   -0.000104   0.002131  -0.001863  -0.001523   0.002099
   25  C  2 XX   -0.000010  -0.000298  -0.006375  -0.006387   0.000690
   26  C  2 YY   -0.000016  -0.000183  -0.006291  -0.006324   0.000727
   27  C  2 ZZ   -0.000008  -0.000384  -0.006235  -0.006447   0.000519
   28  C  2 XY    0.000014   0.000056   0.000141   0.000087   0.000089
   29  C  2 XZ   -0.000007  -0.000122  -0.000015   0.000007   0.000099
   30  C  2 YZ    0.000014   0.000028  -0.000073  -0.000002  -0.000129
   31  C  3  S    0.000003   0.001823   0.694607  -0.702160  -0.102762
   32  C  3  S    0.000044  -0.000381   0.035151  -0.035620  -0.005533
   33  C  3  X   -0.000010  -0.000011   0.000037   0.000004   0.000031
   34  C  3  Y    0.000011  -0.000003   0.000016   0.000014  -0.000077
   35  C  3  Z    0.000013   0.000009  -0.000196   0.000195   0.000077
   36  C  3  S   -0.000259   0.007186  -0.014279   0.013149   0.008477
   37  C  3  X   -0.000079   0.001382  -0.000550  -0.000084  -0.000972
   38  C  3  Y    0.000043  -0.000761  -0.000414  -0.000119   0.001354
   39  C  3  Z    0.000104  -0.002131   0.001863  -0.001523  -0.002099
   40  C  3 XX   -0.000010  -0.000298  -0.006375   0.006387   0.000690
   41  C  3 YY   -0.000016  -0.000183  -0.006291   0.006324   0.000727
   42  C  3 ZZ   -0.000008  -0.000384  -0.006235   0.006447   0.000519
   43  C  3 XY    0.000014   0.000056   0.000141  -0.000087   0.000089
   44  C  3 XZ    0.000007   0.000122   0.000015   0.000007  -0.000099
   45  C  3 YZ   -0.000014  -0.000028   0.000073  -0.000002   0.000129
   46  C  4  S   -0.000001   0.000065   0.144920   0.000000   0.982396
   47  C  4  S   -0.000007   0.000100   0.006887   0.000000   0.049767
   48  C  4  X   -0.000002  -0.000031   0.000013   0.000000   0.000254
   49  C  4  Y    0.000000  -0.000028   0.000066   0.000000  -0.000174
   50  C  4  Z    0.000000   0.000000   0.000000   0.000077   0.000000
   51  C  4  S    0.000086  -0.002470   0.005695   0.000000  -0.021142
   52  C  4  X    0.000038  -0.000205   0.001320   0.000000  -0.002209
   53  C  4  Y   -0.000055   0.001224  -0.001781   0.000000   0.002094
   54  C  4  Z    0.000000   0.000000   0.000000  -0.002228   0.000000
   55  C  4 XX   -0.000006   0.000143  -0.001670   0.000000  -0.008707
   56  C  4 YY    0.000002   0.000017  -0.001662   0.000000  -0.008765
   57  C  4 ZZ   -0.000002  -0.000010  -0.001772   0.000000  -0.008931
   58  C  4 XY   -0.000002  -0.000026   0.000245   0.000000   0.000046
   59  C  4 XZ    0.000000   0.000000   0.000000   0.000159   0.000000
   60  C  4 YZ    0.000000   0.000000   0.000000  -0.000144   0.000000
   61  CL 5  S    0.995998  -0.000011  -0.000000   0.000000  -0.000001
   62  CL 5  S    0.015169  -0.000016  -0.000048   0.000000  -0.000008
   63  CL 5  X   -0.000020   0.000016  -0.000031   0.000000   0.000015
   64  CL 5  Y    0.000048  -0.000009   0.000036   0.000000  -0.000013
   65  CL 5  Z    0.000000   0.000000   0.000000  -0.000013   0.000000
   66  CL 5  S   -0.021036   0.000115  -0.000032   0.000000  -0.000062
   67  CL 5  X    0.000027  -0.000157   0.000192   0.000000  -0.000087
   68  CL 5  Y   -0.000045   0.000250  -0.000242   0.000000   0.000087
   69  CL 5  Z    0.000000   0.000000   0.000000   0.000082   0.000000
   70  CL 5  S    0.001571   0.003072   0.000112   0.000000   0.000571
   71  CL 5  X   -0.000000  -0.000991  -0.000025   0.000000  -0.000189
   72  CL 5  Y    0.000021   0.001639   0.000145   0.000000   0.000284
   73  CL 5  Z    0.000000   0.000000   0.000000   0.000071   0.000000
   74  CL 5 XX    0.007556  -0.000073  -0.000153   0.000000   0.000015
   75  CL 5 YY    0.007554  -0.000242  -0.000155   0.000000   0.000035
   76  CL 5 ZZ    0.007562  -0.000144  -0.000094   0.000000  -0.000007
   77  CL 5 XY    0.000011  -0.000102   0.000050   0.000000  -0.000071
   78  CL 5 XZ    0.000000   0.000000   0.000000   0.000040   0.000000
   79  CL 5 YZ    0.000000   0.000000   0.000000   0.000058   0.000000
   80  H  6  S   -0.000028   0.000042  -0.000318   0.000000   0.000009
   81  H  6  S   -0.000053   0.002339   0.000045   0.000000  -0.000308
   82  H  7  S    0.000014  -0.000232  -0.000007  -0.000028  -0.000244
   83  H  7  S   -0.000009  -0.000115   0.002012   0.001532  -0.000495
   84  H  8  S    0.000014  -0.000232  -0.000007   0.000028  -0.000244
   85  H  8  S   -0.000009  -0.000115   0.002012  -0.001532  -0.000495
   86  H  9  S    0.000018  -0.000286  -0.000035   0.000027  -0.000241
   87  H  9  S   -0.000037  -0.000302   0.001752   0.002123  -0.000300
   88  H 10  S    0.000018  -0.000286  -0.000035  -0.000027  -0.000241
   89  H 10  S   -0.000037  -0.000302   0.001752  -0.002123  -0.000300
   90  H 11  S   -0.000002   0.000001  -0.000328   0.000000   0.000078
   91  H 11  S    0.000014  -0.000332   0.000448   0.000000   0.002699
   92  H 12  S   -0.000003   0.000086  -0.000339   0.000000   0.000038
   93  H 12  S    0.000006   0.000402   0.000050   0.000000   0.002542

                      6          7          8          9         10
                   -9.4405    -7.2041    -7.1948    -7.1947    -0.8810
                     A'         A'         A''        A'         A'  
    1  C  1  S    0.000022   0.000235   0.000000  -0.000077  -0.125126
    2  C  1  S    0.000943   0.002583   0.000000  -0.000401   0.237898
    3  C  1  X   -0.000217  -0.000344   0.000000   0.000018  -0.040754
    4  C  1  Y    0.000401   0.000366   0.000000   0.000313  -0.013056
    5  C  1  Z    0.000000   0.000000  -0.000080   0.000000   0.000000
    6  C  1  S   -0.003235  -0.008318   0.000000   0.003155   0.196015
    7  C  1  X    0.002454   0.002691   0.000000  -0.002427  -0.006868
    8  C  1  Y   -0.000581   0.004131   0.000000  -0.001586  -0.009680
    9  C  1  Z    0.000000   0.000000  -0.000733   0.000000   0.000000
   10  C  1 XX   -0.000088   0.000059   0.000000  -0.000220   0.003886
   11  C  1 YY   -0.000635  -0.001689   0.000000   0.000056   0.003690
   12  C  1 ZZ    0.000021   0.000404   0.000000  -0.000051  -0.007264
   13  C  1 XY    0.000412   0.001010   0.000000   0.000177  -0.007567
   14  C  1 XZ    0.000000   0.000000   0.000001   0.000000   0.000000
   15  C  1 YZ    0.000000   0.000000   0.000355   0.000000   0.000000
   16  C  2  S   -0.000095  -0.000189   0.000036   0.000083  -0.085759
   17  C  2  S   -0.000533  -0.000983   0.000176   0.000443   0.161666
   18  C  2  X   -0.000025   0.000090   0.000180  -0.000027   0.017123
   19  C  2  Y    0.000148   0.000199  -0.000054  -0.000071  -0.000846
   20  C  2  Z    0.000045   0.000090  -0.000059   0.000094   0.069947
   21  C  2  S    0.003429   0.006741  -0.000394  -0.003181   0.100478
   22  C  2  X    0.000657  -0.000049  -0.001398   0.000184  -0.000098
   23  C  2  Y   -0.001281  -0.002768   0.000806   0.001064   0.001961
   24  C  2  Z    0.001265   0.001982   0.000324  -0.002061   0.006897
   25  C  2 XX   -0.000097  -0.000214   0.000032   0.000097  -0.002118
   26  C  2 YY   -0.000053  -0.000032  -0.000014  -0.000026  -0.003084
   27  C  2 ZZ   -0.000122  -0.000252   0.000117   0.000122   0.007422
   28  C  2 XY   -0.000071  -0.000196   0.000055   0.000116  -0.000428
   29  C  2 XZ    0.000157   0.000143  -0.000059  -0.000046   0.002811
   30  C  2 YZ   -0.000032  -0.000054   0.000102   0.000024   0.000505
   31  C  3  S   -0.000095  -0.000189  -0.000036   0.000083  -0.085759
   32  C  3  S   -0.000533  -0.000983  -0.000176   0.000443   0.161666
   33  C  3  X   -0.000025   0.000090  -0.000180  -0.000027   0.017123
   34  C  3  Y    0.000148   0.000199   0.000054  -0.000071  -0.000846
   35  C  3  Z   -0.000045  -0.000090  -0.000059  -0.000094  -0.069947
   36  C  3  S    0.003429   0.006741   0.000394  -0.003181   0.100478
   37  C  3  X    0.000657  -0.000049   0.001398   0.000184  -0.000098
   38  C  3  Y   -0.001281  -0.002768  -0.000806   0.001064   0.001961
   39  C  3  Z   -0.001265  -0.001982   0.000324   0.002061  -0.006897
   40  C  3 XX   -0.000097  -0.000214  -0.000032   0.000097  -0.002118
   41  C  3 YY   -0.000053  -0.000032   0.000014  -0.000026  -0.003084
   42  C  3 ZZ   -0.000122  -0.000252  -0.000117   0.000122   0.007422
   43  C  3 XY   -0.000071  -0.000196  -0.000055   0.000116  -0.000428
   44  C  3 XZ   -0.000157  -0.000143  -0.000059   0.000046  -0.002811
   45  C  3 YZ    0.000032   0.000054   0.000102  -0.000024  -0.000505
   46  C  4  S    0.000002   0.000073   0.000000  -0.000068  -0.075019
   47  C  4  S    0.000005   0.000381   0.000000  -0.000339   0.139440
   48  C  4  X   -0.000071  -0.000062   0.000000   0.000136   0.049747
   49  C  4  Y   -0.000107  -0.000067   0.000000   0.000104  -0.044897
   50  C  4  Z    0.000000   0.000000  -0.000002   0.000000   0.000000
   51  C  4  S   -0.000632  -0.003183   0.000000   0.002991   0.098557
   52  C  4  X    0.000178  -0.000619   0.000000   0.000218   0.010777
   53  C  4  Y    0.001440   0.002768   0.000000  -0.002252  -0.007144
   54  C  4  Z    0.000000   0.000000   0.001040   0.000000   0.000000
   55  C  4 XX   -0.000005   0.000032   0.000000  -0.000027   0.002918
   56  C  4 YY   -0.000050  -0.000050   0.000000  -0.000017   0.001569
   57  C  4 ZZ    0.000068   0.000177   0.000000  -0.000137  -0.002737
   58  C  4 XY    0.000041   0.000130   0.000000  -0.000101  -0.006533
   59  C  4 XZ    0.000000   0.000000   0.000050   0.000000   0.000000
   60  C  4 YZ    0.000000   0.000000  -0.000093   0.000000   0.000000
   61  CL 5  S   -0.284654   0.001636   0.000000  -0.000007   0.039443
   62  CL 5  S    1.022206  -0.005983   0.000000   0.000001  -0.177336
   63  CL 5  X   -0.001795  -0.336344   0.000000   0.932131   0.014584
   64  CL 5  Y    0.005040   0.931575   0.000000   0.336661  -0.033850
   65  CL 5  Z    0.000000   0.000000   0.991074   0.000000   0.000000
   66  CL 5  S    0.074226  -0.000100   0.000000  -0.000014   0.348637
   67  CL 5  X   -0.000608  -0.010679   0.000000   0.026850  -0.033920
   68  CL 5  Y    0.001210   0.028855   0.000000   0.009365   0.079100
   69  CL 5  Z    0.000000   0.000000   0.028389   0.000000   0.000000
   70  CL 5  S   -0.013340   0.002156   0.000000  -0.000542   0.108155
   71  CL 5  X    0.000605   0.002210   0.000000  -0.007152   0.000504
   72  CL 5  Y   -0.001667  -0.006661   0.000000  -0.002866  -0.000532
   73  CL 5  Z    0.000000   0.000000  -0.007943   0.000000   0.000000
   74  CL 5 XX   -0.016474   0.000178   0.000000  -0.000343  -0.006044
   75  CL 5 YY   -0.016018   0.001509   0.000000   0.000089   0.016561
   76  CL 5 ZZ   -0.016609  -0.000178   0.000000  -0.000042  -0.010817
   77  CL 5 XY   -0.000332  -0.000883   0.000000   0.000424  -0.012835
   78  CL 5 XZ    0.000000   0.000000  -0.000102   0.000000   0.000000
   79  CL 5 YZ    0.000000   0.000000   0.000367   0.000000   0.000000
   80  H  6  S   -0.000115  -0.000068   0.000000  -0.000012   0.055531
   81  H  6  S    0.000469  -0.000278   0.000000   0.002200   0.002736
   82  H  7  S   -0.000004  -0.000012   0.000107  -0.000075   0.032239
   83  H  7  S    0.000117   0.000412   0.000222  -0.000617   0.001645
   84  H  8  S   -0.000004  -0.000012  -0.000107  -0.000075   0.032239
   85  H  8  S    0.000117   0.000412  -0.000222  -0.000617   0.001645
   86  H  9  S   -0.000435  -0.000566   0.000196   0.000461   0.037100
   87  H  9  S    0.000143  -0.001243  -0.000514  -0.000505   0.003427
   88  H 10  S   -0.000435  -0.000566  -0.000196   0.000461   0.037100
   89  H 10  S    0.000143  -0.001243   0.000514  -0.000505   0.003427
   90  H 11  S   -0.000101  -0.000026   0.000000   0.000077   0.030399
   91  H 11  S   -0.000658  -0.000832   0.000000   0.000654   0.001906
   92  H 12  S    0.000111   0.000201   0.000000  -0.000237   0.027311
   93  H 12  S    0.000230   0.000202   0.000000  -0.000289   0.002810

                     11         12         13         14         15
                   -0.8081    -0.6688    -0.6432    -0.5554    -0.4935
                     A'         A''        A'         A'         A'  
    1  C  1  S   -0.008379   0.000000   0.121616  -0.074532  -0.020044
    2  C  1  S    0.014839   0.000000  -0.245913   0.155347   0.048094
    3  C  1  X    0.099094   0.000000  -0.006290   0.155463  -0.214273
    4  C  1  Y   -0.114520   0.000000  -0.064932   0.087681  -0.066828
    5  C  1  Z    0.000000  -0.143348   0.000000   0.000000   0.000000
    6  C  1  S    0.040008   0.000000  -0.261776   0.178869   0.041615
    7  C  1  X    0.019095   0.000000  -0.001082   0.066019  -0.075951
    8  C  1  Y   -0.035348   0.000000  -0.019983   0.036325  -0.035481
    9  C  1  Z    0.000000  -0.036318   0.000000   0.000000   0.000000
   10  C  1 XX   -0.006496   0.000000  -0.001253   0.001405   0.004746
   11  C  1 YY    0.012065   0.000000   0.004960   0.005570  -0.002966
   12  C  1 ZZ   -0.005512   0.000000   0.003670  -0.013278  -0.007901
   13  C  1 XY   -0.001643   0.000000  -0.006476   0.003752  -0.007638
   14  C  1 XZ    0.000000   0.014382   0.000000   0.000000   0.000000
   15  C  1 YZ    0.000000  -0.004562   0.000000   0.000000   0.000000
   16  C  2  S    0.066270  -0.140872   0.012470   0.074089   0.031372
   17  C  2  S   -0.125704   0.275487  -0.026112  -0.149207  -0.059985
   18  C  2  X    0.019348   0.001997  -0.112173   0.061972  -0.042689
   19  C  2  Y   -0.027892  -0.002430   0.059123   0.095135  -0.090144
   20  C  2  Z   -0.049916  -0.046425  -0.008304   0.098114   0.256424
   21  C  2  S   -0.100852   0.271450  -0.019497  -0.165703  -0.077055
   22  C  2  X    0.003227  -0.000133  -0.025858   0.023443  -0.022884
   23  C  2  Y   -0.000913   0.000345   0.013132   0.038112  -0.043224
   24  C  2  Z   -0.009129  -0.009113   0.000855   0.034360   0.097508
   25  C  2 XX    0.003899  -0.003354  -0.001301   0.006486  -0.001746
   26  C  2 YY    0.002529   0.000742   0.004075  -0.002117  -0.005790
   27  C  2 ZZ   -0.005735  -0.002724  -0.001340   0.001432   0.006969
   28  C  2 XY   -0.001238   0.006624  -0.002848  -0.010426  -0.007376
   29  C  2 XZ    0.002612  -0.000096  -0.012019   0.001928   0.003712
   30  C  2 YZ   -0.003540  -0.000949   0.007527   0.003709   0.003622
   31  C  3  S    0.066270   0.140872   0.012470   0.074089   0.031372
   32  C  3  S   -0.125704  -0.275487  -0.026112  -0.149207  -0.059985
   33  C  3  X    0.019348  -0.001997  -0.112173   0.061972  -0.042689
   34  C  3  Y   -0.027892   0.002430   0.059123   0.095135  -0.090144
   35  C  3  Z    0.049916  -0.046425   0.008304  -0.098114  -0.256424
   36  C  3  S   -0.100852  -0.271450  -0.019497  -0.165703  -0.077055
   37  C  3  X    0.003227   0.000133  -0.025858   0.023443  -0.022884
   38  C  3  Y   -0.000913  -0.000345   0.013132   0.038112  -0.043224
   39  C  3  Z    0.009129  -0.009113  -0.000855  -0.034360  -0.097508
   40  C  3 XX    0.003899   0.003354  -0.001301   0.006486  -0.001746
   41  C  3 YY    0.002529  -0.000742   0.004075  -0.002117  -0.005790
   42  C  3 ZZ   -0.005735   0.002724  -0.001340   0.001432   0.006969
   43  C  3 XY   -0.001238  -0.006624  -0.002848  -0.010426  -0.007376
   44  C  3 XZ   -0.002612  -0.000096   0.012019  -0.001928  -0.003712
   45  C  3 YZ    0.003540  -0.000949  -0.007527  -0.003709  -0.003622
   46  C  4  S    0.089279   0.000000  -0.138347  -0.073408  -0.012156
   47  C  4  S   -0.169959   0.000000   0.271471   0.148129   0.030703
   48  C  4  X   -0.041444   0.000000  -0.063958  -0.013455   0.025095
   49  C  4  Y    0.037057   0.000000   0.041831   0.128119  -0.164017
   50  C  4  Z    0.000000  -0.125310   0.000000   0.000000   0.000000
   51  C  4  S   -0.130436   0.000000   0.275960   0.162108   0.018527
   52  C  4  X   -0.007256   0.000000  -0.016250   0.002051  -0.000331
   53  C  4  Y    0.004657   0.000000   0.011289   0.049927  -0.051009
   54  C  4  Z    0.000000  -0.027777   0.000000   0.000000   0.000000
   55  C  4 XX   -0.002351   0.000000   0.000466   0.005350   0.003264
   56  C  4 YY   -0.001101   0.000000   0.001658   0.001192   0.001157
   57  C  4 ZZ    0.003418   0.000000  -0.007905  -0.012770  -0.008932
   58  C  4 XY    0.004389   0.000000   0.006335   0.005668  -0.010050
   59  C  4 XZ    0.000000  -0.010574   0.000000   0.000000   0.000000
   60  C  4 YZ    0.000000   0.010959   0.000000   0.000000   0.000000
   61  CL 5  S    0.064551   0.000000   0.031551  -0.009710  -0.001277
   62  CL 5  S   -0.290611   0.000000  -0.142597   0.044513   0.006446
   63  CL 5  X    0.008376   0.000000  -0.013181  -0.009317   0.030709
   64  CL 5  Y   -0.028064   0.000000   0.039761  -0.040726   0.001200
   65  CL 5  Z    0.000000   0.011211   0.000000   0.000000   0.000000
   66  CL 5  S    0.582599   0.000000   0.296739  -0.092156  -0.010791
   67  CL 5  X   -0.020277   0.000000   0.030975   0.022299  -0.075774
   68  CL 5  Y    0.067648   0.000000  -0.093466   0.099078  -0.002688
   69  CL 5  Z    0.000000  -0.026689   0.000000   0.000000   0.000000
   70  CL 5  S    0.216671   0.000000   0.161723  -0.067845  -0.019929
   71  CL 5  X    0.000119   0.000000   0.003838   0.011549  -0.023626
   72  CL 5  Y    0.001773   0.000000  -0.014357   0.022264  -0.007604
   73  CL 5  Z    0.000000  -0.007091   0.000000   0.000000   0.000000
   74  CL 5 XX   -0.010584   0.000000  -0.000675  -0.006393   0.007201
   75  CL 5 YY    0.012456   0.000000  -0.015377   0.017962  -0.003572
   76  CL 5 ZZ   -0.013260   0.000000   0.000974  -0.003562  -0.001262
   77  CL 5 XY   -0.009487   0.000000   0.006069   0.001405  -0.010399
   78  CL 5 XZ    0.000000   0.003322   0.000000   0.000000   0.000000
   79  CL 5 YZ    0.000000  -0.005789   0.000000   0.000000   0.000000
   80  H  6  S    0.006351   0.000000  -0.110673   0.149561  -0.096111
   81  H  6  S    0.001303   0.000000  -0.038390   0.069201  -0.072329
   82  H  7  S   -0.029129   0.112846  -0.009963  -0.063427  -0.165761
   83  H  7  S   -0.004386   0.038079  -0.002814  -0.030237  -0.105898
   84  H  8  S   -0.029129  -0.112846  -0.009963  -0.063427  -0.165761
   85  H  8  S   -0.004386  -0.038079  -0.002814  -0.030237  -0.105898
   86  H  9  S   -0.028655   0.108206  -0.001284  -0.131525  -0.032342
   87  H  9  S   -0.001117   0.034431   0.002369  -0.062792  -0.023605
   88  H 10  S   -0.028655  -0.108206  -0.001284  -0.131525  -0.032342
   89  H 10  S   -0.001117  -0.034431   0.002369  -0.062792  -0.023605
   90  H 11  S   -0.043629   0.000000   0.112930   0.120297  -0.072941
   91  H 11  S   -0.006106   0.000000   0.040796   0.058352  -0.060903
   92  H 12  S   -0.040711   0.000000   0.125556   0.062353   0.008327
   93  H 12  S   -0.005958   0.000000   0.047369   0.031861  -0.001364

                     16         17         18         19         20
                   -0.4751    -0.4082    -0.3982    -0.3905    -0.3396
                     A'         A'         A''        A''        A'  
    1  C  1  S   -0.039770  -0.007494   0.000000   0.000000   0.038417
    2  C  1  S    0.080271   0.014103   0.000000   0.000000  -0.081410
    3  C  1  X    0.144472  -0.156941   0.000000   0.000000   0.162020
    4  C  1  Y   -0.177873  -0.253294   0.000000   0.000000  -0.165921
    5  C  1  Z    0.000000   0.000000  -0.155645   0.315214   0.000000
    6  C  1  S    0.129065   0.059312   0.000000   0.000000  -0.109656
    7  C  1  X    0.065208  -0.098754   0.000000   0.000000   0.119216
    8  C  1  Y   -0.095623  -0.131748   0.000000   0.000000  -0.088955
    9  C  1  Z    0.000000   0.000000  -0.082843   0.166402   0.000000
   10  C  1 XX   -0.001608  -0.014304   0.000000   0.000000   0.008723
   11  C  1 YY    0.004701   0.008837   0.000000   0.000000   0.014422
   12  C  1 ZZ   -0.003443   0.004585   0.000000   0.000000  -0.011278
   13  C  1 XY    0.007012  -0.012058   0.000000   0.000000  -0.021409
   14  C  1 XZ    0.000000   0.000000  -0.000631  -0.007382   0.000000
   15  C  1 YZ    0.000000   0.000000  -0.010422  -0.009355   0.000000
   16  C  2  S    0.013464   0.002200   0.002809  -0.003258  -0.009353
   17  C  2  S   -0.032546  -0.003812  -0.003436   0.006491   0.022709
   18  C  2  X   -0.080461   0.079233   0.232461  -0.157693  -0.145810
   19  C  2  Y   -0.137110  -0.008727   0.219663   0.204875   0.155858
   20  C  2  Z   -0.084912  -0.024063   0.012912  -0.059541   0.024994
   21  C  2  S   -0.017549  -0.021263  -0.020378   0.016463   0.037029
   22  C  2  X   -0.034709   0.036232   0.111050  -0.069718  -0.074011
   23  C  2  Y   -0.050416   0.001432   0.109460   0.105777   0.067005
   24  C  2  Z   -0.018188  -0.020176   0.006838  -0.023368   0.008480
   25  C  2 XX    0.008511  -0.007266   0.000123  -0.004700  -0.004574
   26  C  2 YY    0.004786   0.007715  -0.006585   0.001478  -0.000797
   27  C  2 ZZ   -0.009085  -0.000801   0.005222   0.004405   0.004486
   28  C  2 XY   -0.000183  -0.004382  -0.007673   0.000687  -0.001446
   29  C  2 XZ    0.000098   0.002907  -0.006136  -0.009675  -0.012123
   30  C  2 YZ   -0.001240  -0.004077  -0.012823  -0.000276   0.004895
   31  C  3  S    0.013464   0.002200  -0.002809   0.003258  -0.009353
   32  C  3  S   -0.032546  -0.003812   0.003436  -0.006491   0.022709
   33  C  3  X   -0.080461   0.079233  -0.232461   0.157693  -0.145810
   34  C  3  Y   -0.137110  -0.008727  -0.219663  -0.204875   0.155858
   35  C  3  Z    0.084912   0.024063   0.012912  -0.059541  -0.024994
   36  C  3  S   -0.017549  -0.021263   0.020378  -0.016463   0.037029
   37  C  3  X   -0.034709   0.036232  -0.111050   0.069718  -0.074011
   38  C  3  Y   -0.050416   0.001432  -0.109460  -0.105777   0.067005
   39  C  3  Z    0.018188   0.020176   0.006838  -0.023368  -0.008480
   40  C  3 XX    0.008511  -0.007266  -0.000123   0.004700  -0.004574
   41  C  3 YY    0.004786   0.007715   0.006585  -0.001478  -0.000797
   42  C  3 ZZ   -0.009085  -0.000801  -0.005222  -0.004405   0.004486
   43  C  3 XY   -0.000183  -0.004382   0.007673  -0.000687  -0.001446
   44  C  3 XZ   -0.000098  -0.002907  -0.006136  -0.009675   0.012123
   45  C  3 YZ    0.001240   0.004077  -0.012823  -0.000276  -0.004895
   46  C  4  S   -0.020713  -0.001891   0.000000   0.000000  -0.022290
   47  C  4  S    0.040521   0.000958   0.000000   0.000000   0.047775
   48  C  4  X   -0.272217   0.135307   0.000000   0.000000   0.218908
   49  C  4  Y    0.002197   0.263385   0.000000   0.000000  -0.206550
   50  C  4  Z    0.000000   0.000000  -0.001553  -0.220339   0.000000
   51  C  4  S    0.039263   0.018232   0.000000   0.000000   0.096243
   52  C  4  X   -0.117013   0.067470   0.000000   0.000000   0.121199
   53  C  4  Y   -0.006272   0.121090   0.000000   0.000000  -0.101145
   54  C  4  Z    0.000000   0.000000  -0.001241  -0.102894   0.000000
   55  C  4 XX    0.004245  -0.009431   0.000000   0.000000  -0.012235
   56  C  4 YY   -0.000794   0.014170   0.000000   0.000000  -0.006350
   57  C  4 ZZ   -0.003087  -0.003197   0.000000   0.000000   0.012777
   58  C  4 XY    0.008236   0.004478   0.000000   0.000000  -0.005377
   59  C  4 XZ    0.000000   0.000000  -0.008405  -0.005721   0.000000
   60  C  4 YZ    0.000000   0.000000  -0.008171   0.004042   0.000000
   61  CL 5  S   -0.020231  -0.008730   0.000000   0.000000  -0.002242
   62  CL 5  S    0.093159   0.041810   0.000000   0.000000   0.014171
   63  CL 5  X    0.042636   0.101469   0.000000   0.000000  -0.053332
   64  CL 5  Y   -0.118951  -0.086618   0.000000   0.000000  -0.169772
   65  CL 5  Z    0.000000   0.000000   0.020615  -0.115588   0.000000
   66  CL 5  S   -0.194270  -0.081533   0.000000   0.000000  -0.013655
   67  CL 5  X   -0.105307  -0.254506   0.000000   0.000000   0.133438
   68  CL 5  Y    0.294030   0.218960   0.000000   0.000000   0.434832
   69  CL 5  Z    0.000000   0.000000  -0.051896   0.290307   0.000000
   70  CL 5  S   -0.174356  -0.103691   0.000000   0.000000  -0.080195
   71  CL 5  X   -0.028621  -0.097358   0.000000   0.000000   0.087220
   72  CL 5  Y    0.073862   0.064992   0.000000   0.000000   0.179672
   73  CL 5  Z    0.000000   0.000000  -0.017449   0.134793   0.000000
   74  CL 5 XX   -0.003434   0.005941   0.000000   0.000000  -0.009259
   75  CL 5 YY    0.029329   0.012603   0.000000   0.000000   0.028575
   76  CL 5 ZZ   -0.008395  -0.005863   0.000000   0.000000  -0.006055
   77  CL 5 XY   -0.014610  -0.025832   0.000000   0.000000  -0.000902
   78  CL 5 XZ    0.000000   0.000000  -0.000242  -0.011031   0.000000
   79  CL 5 YZ    0.000000   0.000000  -0.007139   0.024118   0.000000
   80  H  6  S    0.042236  -0.170941   0.000000   0.000000  -0.035836
   81  H  6  S    0.025318  -0.127766   0.000000   0.000000  -0.044480
   82  H  7  S   -0.034071   0.023620   0.122007   0.070394   0.022318
   83  H  7  S   -0.016895   0.016601   0.105364   0.058967   0.017779
   84  H  8  S   -0.034071   0.023620  -0.122007  -0.070394   0.022318
   85  H  8  S   -0.016895   0.016601  -0.105364  -0.058967   0.017779
   86  H  9  S    0.086384  -0.019232  -0.194806  -0.031339  -0.030576
   87  H  9  S    0.065333  -0.014891  -0.150594  -0.023331  -0.047345
   88  H 10  S    0.086384  -0.019232   0.194806   0.031339  -0.030576
   89  H 10  S    0.065333  -0.014891   0.150594   0.023331  -0.047345
   90  H 11  S   -0.011444   0.184406   0.000000   0.000000  -0.085318
   91  H 11  S   -0.004093   0.148607   0.000000   0.000000  -0.093836
   92  H 12  S    0.167859  -0.102811   0.000000   0.000000  -0.118784
   93  H 12  S    0.113472  -0.085466   0.000000   0.000000  -0.118133

                     21         22         23         24         25
                   -0.3322    -0.3198    -0.2798    -0.2794     0.0437
                     A'         A''        A'         A''        A'  
    1  C  1  S    0.008867   0.000000  -0.013854   0.000000  -0.091610
    2  C  1  S   -0.017432   0.000000   0.042084   0.000000   0.165693
    3  C  1  X    0.122589   0.000000  -0.203997   0.000000   0.131420
    4  C  1  Y    0.082034   0.000000  -0.032471   0.000000  -0.360768
    5  C  1  Z    0.000000   0.134799   0.000000  -0.216333   0.000000
    6  C  1  S   -0.070197   0.000000   0.027484   0.000000   0.905387
    7  C  1  X    0.070399   0.000000  -0.035003   0.000000   0.312424
    8  C  1  Y    0.037080   0.000000  -0.018879   0.000000  -0.630231
    9  C  1  Z    0.000000   0.076580   0.000000  -0.070599   0.000000
   10  C  1 XX    0.013015   0.000000   0.002110   0.000000   0.005858
   11  C  1 YY   -0.005345   0.000000  -0.016463   0.000000  -0.015568
   12  C  1 ZZ   -0.006457   0.000000   0.012047   0.000000  -0.005503
   13  C  1 XY    0.010520   0.000000  -0.015028   0.000000   0.010378
   14  C  1 XZ    0.000000  -0.006115   0.000000   0.017852   0.000000
   15  C  1 YZ    0.000000  -0.001295   0.000000  -0.016002   0.000000
   16  C  2  S    0.002716   0.021135  -0.009682  -0.028413  -0.011922
   17  C  2  S   -0.008528  -0.047065   0.019507   0.056819   0.009776
   18  C  2  X   -0.151677   0.097438   0.134077   0.097969  -0.096377
   19  C  2  Y   -0.167050  -0.079042  -0.076260  -0.079057  -0.023729
   20  C  2  Z    0.015344  -0.283006   0.016138   0.151633  -0.031438
   21  C  2  S   -0.001694  -0.078615   0.086171   0.156533   0.315225
   22  C  2  X   -0.069021   0.054652   0.063686   0.058825  -0.184118
   23  C  2  Y   -0.079367  -0.039768  -0.055061  -0.028671  -0.105667
   24  C  2  Z    0.024714  -0.146268   0.017383   0.099954  -0.011822
   25  C  2 XX   -0.001095  -0.005817  -0.001218   0.004785   0.000982
   26  C  2 YY    0.008905  -0.000230  -0.002429  -0.003332  -0.001587
   27  C  2 ZZ   -0.007197   0.012580   0.003708  -0.006787   0.001558
   28  C  2 XY    0.007073   0.013625  -0.001610  -0.003051  -0.013724
   29  C  2 XZ    0.007818  -0.001576   0.005733   0.005903  -0.007423
   30  C  2 YZ    0.014187  -0.008637  -0.006987   0.002222  -0.013605
   31  C  3  S    0.002716  -0.021135  -0.009682   0.028413  -0.011922
   32  C  3  S   -0.008528   0.047065   0.019507  -0.056819   0.009776
   33  C  3  X   -0.151677  -0.097438   0.134077  -0.097969  -0.096377
   34  C  3  Y   -0.167050   0.079042  -0.076260   0.079057  -0.023729
   35  C  3  Z   -0.015344  -0.283006  -0.016138   0.151633   0.031438
   36  C  3  S   -0.001694   0.078615   0.086171  -0.156533   0.315225
   37  C  3  X   -0.069021  -0.054652   0.063686  -0.058825  -0.184118
   38  C  3  Y   -0.079367   0.039768  -0.055061   0.028671  -0.105667
   39  C  3  Z   -0.024714  -0.146268  -0.017383   0.099954   0.011822
   40  C  3 XX   -0.001095   0.005817  -0.001218  -0.004785   0.000982
   41  C  3 YY    0.008905   0.000230  -0.002429   0.003332  -0.001587
   42  C  3 ZZ   -0.007197  -0.012580   0.003708   0.006787   0.001558
   43  C  3 XY    0.007073  -0.013625  -0.001610   0.003051  -0.013724
   44  C  3 XZ   -0.007818  -0.001576  -0.005733   0.005903   0.007423
   45  C  3 YZ   -0.014187  -0.008637   0.006987   0.002222   0.013605
   46  C  4  S   -0.000618   0.000000   0.015476   0.000000  -0.028306
   47  C  4  S   -0.000505   0.000000  -0.032295   0.000000   0.059259
   48  C  4  X    0.200746   0.000000  -0.110950   0.000000  -0.039082
   49  C  4  Y    0.175914   0.000000   0.092443   0.000000  -0.031324
   50  C  4  Z    0.000000   0.355781   0.000000  -0.001880   0.000000
   51  C  4  S   -0.008329   0.000000  -0.078150   0.000000   0.258790
   52  C  4  X    0.102908   0.000000  -0.060357   0.000000  -0.193412
   53  C  4  Y    0.076252   0.000000   0.067972   0.000000   0.048821
   54  C  4  Z    0.000000   0.185897   0.000000   0.028630   0.000000
   55  C  4 XX   -0.020465   0.000000   0.009955   0.000000  -0.021881
   56  C  4 YY    0.021459   0.000000   0.003275   0.000000   0.008494
   57  C  4 ZZ   -0.001892   0.000000  -0.008538   0.000000   0.008657
   58  C  4 XY    0.004359   0.000000  -0.002039   0.000000   0.000426
   59  C  4 XZ    0.000000   0.011221   0.000000  -0.002971   0.000000
   60  C  4 YZ    0.000000  -0.012910   0.000000   0.003040   0.000000
   61  CL 5  S   -0.000505   0.000000  -0.000356   0.000000  -0.019204
   62  CL 5  S    0.000063   0.000000   0.001002   0.000000   0.096966
   63  CL 5  X   -0.075287   0.000000  -0.238051   0.000000  -0.041188
   64  CL 5  Y    0.017982   0.000000  -0.061956   0.000000   0.142514
   65  CL 5  Z    0.000000  -0.086087   0.000000  -0.244547   0.000000
   66  CL 5  S   -0.010092   0.000000  -0.004805   0.000000  -0.181746
   67  CL 5  X    0.192680   0.000000   0.611759   0.000000   0.105822
   68  CL 5  Y   -0.047500   0.000000   0.157774   0.000000  -0.381341
   69  CL 5  Z    0.000000   0.220035   0.000000   0.628059   0.000000
   70  CL 5  S    0.025920   0.000000  -0.001812   0.000000  -0.647459
   71  CL 5  X    0.085466   0.000000   0.350984   0.000000   0.286198
   72  CL 5  Y   -0.010412   0.000000   0.093751   0.000000  -0.771038
   73  CL 5  Z    0.000000   0.108826   0.000000   0.363017   0.000000
   74  CL 5 XX   -0.003493   0.000000  -0.001072   0.000000  -0.024096
   75  CL 5 YY   -0.003012   0.000000  -0.003021   0.000000   0.095925
   76  CL 5 ZZ    0.000675   0.000000   0.002111   0.000000  -0.041995
   77  CL 5 XY    0.012727   0.000000  -0.000044   0.000000  -0.058561
   78  CL 5 XZ    0.000000  -0.002731   0.000000   0.001623   0.000000
   79  CL 5 YZ    0.000000   0.009543   0.000000  -0.000209   0.000000
   80  H  6  S    0.106357   0.000000  -0.131374   0.000000   0.015061
   81  H  6  S    0.114847   0.000000  -0.169224   0.000000  -0.092300
   82  H  7  S   -0.120438   0.138185   0.010781  -0.070278   0.031015
   83  H  7  S   -0.110963   0.145780   0.010825  -0.094943   0.093981
   84  H  8  S   -0.120438  -0.138185   0.010781   0.070278   0.031015
   85  H  8  S   -0.110963  -0.145780   0.010825   0.094943   0.093981
   86  H  9  S    0.151405   0.055386  -0.015511  -0.006468  -0.065235
   87  H  9  S    0.153444   0.056618  -0.049629  -0.022979  -0.454258
   88  H 10  S    0.151405  -0.055386  -0.015511   0.006468  -0.065235
   89  H 10  S    0.153444  -0.056618  -0.049629   0.022979  -0.454258
   90  H 11  S    0.170092   0.000000   0.031078   0.000000   0.025841
   91  H 11  S    0.177964   0.000000   0.027271   0.000000  -0.014265
   92  H 12  S   -0.165661   0.000000   0.066014   0.000000  -0.070595
   93  H 12  S   -0.159029   0.000000   0.079745   0.000000  -0.474417

                     26         27         28         29         30
                    0.0785     0.1162     0.1346     0.1489     0.1713
                     A'         A'         A''        A'         A'  
    1  C  1  S    0.053251   0.103710   0.000000   0.022412   0.005045
    2  C  1  S   -0.069396  -0.116711   0.000000  -0.004778  -0.006467
    3  C  1  X   -0.142724  -0.016756   0.000000   0.162506  -0.274715
    4  C  1  Y   -0.112383   0.062619   0.000000  -0.221128  -0.181022
    5  C  1  Z    0.000000   0.000000   0.213962   0.000000   0.000000
    6  C  1  S   -0.957608  -1.586408   0.000000  -0.529669  -0.158946
    7  C  1  X   -0.353310   0.087263   0.000000   0.481920  -0.990958
    8  C  1  Y   -0.325232   0.112501   0.000000  -0.490282  -0.568047
    9  C  1  Z    0.000000   0.000000   0.843504   0.000000   0.000000
   10  C  1 XX    0.012520   0.008865   0.000000  -0.005185  -0.000060
   11  C  1 YY   -0.003303  -0.009756   0.000000  -0.003112   0.011965
   12  C  1 ZZ   -0.004208   0.023172   0.000000   0.010943  -0.008392
   13  C  1 XY    0.016753   0.011122   0.000000  -0.002155   0.008057
   14  C  1 XZ    0.000000   0.000000   0.019261   0.000000   0.000000
   15  C  1 YZ    0.000000   0.000000  -0.006629   0.000000   0.000000
   16  C  2  S    0.034095  -0.034896  -0.124163   0.057451   0.000489
   17  C  2  S   -0.068365   0.048530   0.138666  -0.079723   0.002770
   18  C  2  X   -0.051037   0.067914   0.016322   0.162220  -0.066758
   19  C  2  Y   -0.077263  -0.141958   0.033041   0.014386   0.082990
   20  C  2  Z    0.104310  -0.035776  -0.004528   0.052814  -0.023317
   21  C  2  S   -0.431355   0.582805   1.994838  -0.926953  -0.071562
   22  C  2  X   -0.053101   0.355620   0.095495   0.665511  -0.240257
   23  C  2  Y   -0.106267  -0.519661   0.069811  -0.128505   0.316327
   24  C  2  Z    0.393736  -0.103445   0.095193   0.170102  -0.128540
   25  C  2 XX   -0.002284  -0.002418  -0.017378   0.001270  -0.009871
   26  C  2 YY    0.000573  -0.001727  -0.007719   0.009753   0.010835
   27  C  2 ZZ    0.005171   0.000543  -0.000024  -0.000937  -0.002970
   28  C  2 XY    0.001696  -0.003619   0.008975  -0.005442  -0.004302
   29  C  2 XZ   -0.011842  -0.013370  -0.002607  -0.012739   0.013800
   30  C  2 YZ   -0.017406   0.004291  -0.001726   0.009177  -0.005094
   31  C  3  S    0.034095  -0.034896   0.124163   0.057451   0.000489
   32  C  3  S   -0.068365   0.048530  -0.138666  -0.079723   0.002770
   33  C  3  X   -0.051037   0.067914  -0.016322   0.162220  -0.066758
   34  C  3  Y   -0.077263  -0.141958  -0.033041   0.014386   0.082990
   35  C  3  Z   -0.104310   0.035776  -0.004528  -0.052814   0.023317
   36  C  3  S   -0.431355   0.582805  -1.994838  -0.926953  -0.071562
   37  C  3  X   -0.053101   0.355620  -0.095495   0.665511  -0.240257
   38  C  3  Y   -0.106267  -0.519661  -0.069811  -0.128505   0.316327
   39  C  3  Z   -0.393736   0.103445   0.095193  -0.170102   0.128540
   40  C  3 XX   -0.002284  -0.002418   0.017378   0.001270  -0.009871
   41  C  3 YY    0.000573  -0.001727   0.007719   0.009753   0.010835
   42  C  3 ZZ    0.005171   0.000543   0.000024  -0.000937  -0.002970
   43  C  3 XY    0.001696  -0.003619  -0.008975  -0.005442  -0.004302
   44  C  3 XZ    0.011842   0.013370  -0.002607   0.012739  -0.013800
   45  C  3 YZ    0.017406  -0.004291  -0.001726  -0.009177   0.005094
   46  C  4  S    0.040987  -0.106862   0.000000  -0.093296  -0.006978
   47  C  4  S   -0.056221   0.133492   0.000000   0.094170   0.000262
   48  C  4  X   -0.045404  -0.112825   0.000000   0.192714   0.050917
   49  C  4  Y   -0.139347  -0.007471   0.000000  -0.016428   0.287389
   50  C  4  Z    0.000000   0.000000   0.158428   0.000000   0.000000
   51  C  4  S   -0.722771   1.690919   0.000000   1.392352   0.211053
   52  C  4  X   -0.154745  -0.264545   0.000000   0.604290   0.210416
   53  C  4  Y   -0.352333   0.011002   0.000000  -0.255404   0.862287
   54  C  4  Z    0.000000   0.000000   0.763378   0.000000   0.000000
   55  C  4 XX   -0.009079  -0.007248   0.000000   0.004399   0.001192
   56  C  4 YY    0.016479   0.002455   0.000000  -0.009249  -0.015429
   57  C  4 ZZ   -0.004763  -0.014459   0.000000  -0.018032   0.010354
   58  C  4 XY    0.003706  -0.005135   0.000000   0.008518  -0.004354
   59  C  4 XZ    0.000000   0.000000  -0.015114   0.000000   0.000000
   60  C  4 YZ    0.000000   0.000000   0.013099   0.000000   0.000000
   61  CL 5  S   -0.002095   0.003087   0.000000  -0.019643  -0.003929
   62  CL 5  S    0.000759  -0.030624   0.000000   0.065099   0.016837
   63  CL 5  X   -0.005975   0.027053   0.000000  -0.034105  -0.007407
   64  CL 5  Y   -0.004122  -0.021913   0.000000   0.040959   0.007120
   65  CL 5  Z    0.000000   0.000000   0.046049   0.000000   0.000000
   66  CL 5  S   -0.045172  -0.009189   0.000000  -0.278457  -0.046118
   67  CL 5  X    0.014937  -0.077341   0.000000   0.101964   0.007974
   68  CL 5  Y    0.005249   0.044812   0.000000  -0.105745  -0.019754
   69  CL 5  Z    0.000000   0.000000  -0.133950   0.000000   0.000000
   70  CL 5  S    0.092006   0.401079   0.000000  -0.111152  -0.098217
   71  CL 5  X    0.042717  -0.151504   0.000000   0.072420   0.236151
   72  CL 5  Y    0.098937   0.399361   0.000000  -0.359445  -0.061078
   73  CL 5  Z    0.000000   0.000000  -0.151224   0.000000   0.000000
   74  CL 5 XX    0.022635   0.003028   0.000000  -0.029883   0.041729
   75  CL 5 YY   -0.028862  -0.060444   0.000000   0.028249  -0.016733
   76  CL 5 ZZ   -0.007845   0.027965   0.000000  -0.024960  -0.023842
   77  CL 5 XY   -0.002172   0.038750   0.000000  -0.019852  -0.044009
   78  CL 5 XZ    0.000000   0.000000  -0.017133   0.000000   0.000000
   79  CL 5 YZ    0.000000   0.000000   0.054691   0.000000   0.000000
   80  H  6  S    0.070573   0.049116   0.000000  -0.052426   0.081027
   81  H  6  S    1.064810   0.554434   0.000000   0.023977   1.471846
   82  H  7  S    0.070754  -0.003980   0.019953   0.012780  -0.014110
   83  H  7  S    0.808132  -0.136362  -0.745190   0.318161  -0.196914
   84  H  8  S    0.070754  -0.003980  -0.019953   0.012780  -0.014110
   85  H  8  S    0.808132  -0.136362   0.745190   0.318161  -0.196914
   86  H  9  S   -0.044233  -0.024503  -0.019026   0.012481   0.009937
   87  H  9  S    0.011572  -0.590518  -0.642440   0.825681   0.115993
   88  H 10  S   -0.044233  -0.024503   0.019026   0.012481   0.009937
   89  H 10  S    0.011572  -0.590518   0.642440   0.825681   0.115993
   90  H 11  S    0.052941   0.005785   0.000000  -0.019820  -0.091437
   91  H 11  S    0.855541  -0.516583   0.000000  -0.599620  -1.314295
   92  H 12  S   -0.015858  -0.016089   0.000000   0.038952   0.010845
   93  H 12  S    0.003680  -1.033083   0.000000   0.245440   0.345692

                     31         32         33         34         35
                    0.1800     0.1847     0.1957     0.2242     0.2368
                     A''        A'         A''        A''        A'  
    1  C  1  S    0.000000   0.067088   0.000000   0.000000   0.001036
    2  C  1  S    0.000000  -0.073416   0.000000   0.000000  -0.021532
    3  C  1  X    0.000000   0.078263   0.000000   0.000000   0.089444
    4  C  1  Y    0.000000  -0.202773   0.000000   0.000000   0.121823
    5  C  1  Z    0.174210   0.000000   0.098837  -0.308473   0.000000
    6  C  1  S    0.000000  -1.158256   0.000000   0.000000   0.316001
    7  C  1  X    0.000000   0.239376   0.000000   0.000000   0.561487
    8  C  1  Y    0.000000  -0.581237   0.000000   0.000000   0.670516
    9  C  1  Z    0.689340   0.000000   0.251769  -1.106776   0.000000
   10  C  1 XX    0.000000  -0.001509   0.000000   0.000000   0.020501
   11  C  1 YY    0.000000  -0.000091   0.000000   0.000000  -0.006321
   12  C  1 ZZ    0.000000   0.017070   0.000000   0.000000  -0.009909
   13  C  1 XY    0.000000  -0.004562   0.000000   0.000000   0.000212
   14  C  1 XZ    0.014680   0.000000   0.016557  -0.021652   0.000000
   15  C  1 YZ   -0.023245   0.000000   0.005562  -0.005184   0.000000
   16  C  2  S   -0.002145  -0.065697  -0.016705  -0.002572   0.006038
   17  C  2  S    0.003003   0.065449   0.030263   0.008855   0.000002
   18  C  2  X    0.124098   0.062471  -0.138936  -0.255019  -0.101762
   19  C  2  Y    0.146251  -0.030153  -0.215980   0.184196  -0.196514
   20  C  2  Z    0.253969  -0.089615   0.233509   0.022290   0.078418
   21  C  2  S   -0.088661   1.137214   0.080287  -0.009885  -0.000421
   22  C  2  X    0.491820   0.329667  -0.405544  -0.922994  -0.626458
   23  C  2  Y    0.504580  -0.024827  -0.665365   0.658245  -0.981290
   24  C  2  Z    0.813617  -0.170636   0.769021   0.102752   0.150370
   25  C  2 XX   -0.004126  -0.007381  -0.003024   0.011425  -0.007421
   26  C  2 YY    0.008234  -0.000867   0.001830  -0.012726   0.001794
   27  C  2 ZZ   -0.001626  -0.008531  -0.001845   0.001039   0.012802
   28  C  2 XY    0.013139   0.001988   0.003025   0.011159   0.004304
   29  C  2 XZ    0.000056  -0.009493  -0.002947   0.011943   0.000797
   30  C  2 YZ    0.001720   0.007395  -0.002644  -0.007129   0.008377
   31  C  3  S    0.002145  -0.065697   0.016705   0.002572   0.006038
   32  C  3  S   -0.003003   0.065449  -0.030263  -0.008855   0.000002
   33  C  3  X   -0.124098   0.062471   0.138936   0.255019  -0.101762
   34  C  3  Y   -0.146251  -0.030153   0.215980  -0.184196  -0.196514
   35  C  3  Z    0.253969   0.089615   0.233509   0.022290  -0.078418
   36  C  3  S    0.088661   1.137214  -0.080287   0.009885  -0.000421
   37  C  3  X   -0.491820   0.329667   0.405544   0.922994  -0.626458
   38  C  3  Y   -0.504580  -0.024827   0.665365  -0.658245  -0.981290
   39  C  3  Z    0.813617   0.170636   0.769021   0.102752  -0.150370
   40  C  3 XX    0.004126  -0.007381   0.003024  -0.011425  -0.007421
   41  C  3 YY   -0.008234  -0.000867  -0.001830   0.012726   0.001794
   42  C  3 ZZ    0.001626  -0.008531   0.001845  -0.001039   0.012802
   43  C  3 XY   -0.013139   0.001988  -0.003025  -0.011159   0.004304
   44  C  3 XZ    0.000056   0.009493  -0.002947   0.011943  -0.000797
   45  C  3 YZ    0.001720  -0.007395  -0.002644  -0.007129  -0.008377
   46  C  4  S    0.000000   0.055401   0.000000   0.000000   0.001058
   47  C  4  S    0.000000  -0.047990   0.000000   0.000000   0.004793
   48  C  4  X    0.000000   0.243417   0.000000   0.000000   0.270647
   49  C  4  Y    0.000000  -0.126807   0.000000   0.000000   0.151782
   50  C  4  Z    0.113503   0.000000   0.060996   0.344317   0.000000
   51  C  4  S    0.000000  -1.140512   0.000000   0.000000   0.044937
   52  C  4  X    0.000000   0.684269   0.000000   0.000000   1.043171
   53  C  4  Y    0.000000  -0.381193   0.000000   0.000000   0.909737
   54  C  4  Z    0.438845   0.000000   0.199671   1.181798   0.000000
   55  C  4 XX    0.000000   0.007125   0.000000   0.000000  -0.001147
   56  C  4 YY    0.000000   0.000995   0.000000   0.000000   0.016259
   57  C  4 ZZ    0.000000   0.006058   0.000000   0.000000  -0.009737
   58  C  4 XY    0.000000   0.005281   0.000000   0.000000  -0.007857
   59  C  4 XZ   -0.022827   0.000000  -0.002558  -0.004878   0.000000
   60  C  4 YZ    0.002323   0.000000   0.013805   0.020474   0.000000
   61  CL 5  S    0.000000  -0.005494   0.000000   0.000000   0.008361
   62  CL 5  S    0.000000   0.021777   0.000000   0.000000  -0.025063
   63  CL 5  X    0.000000   0.017044   0.000000   0.000000   0.016144
   64  CL 5  Y    0.000000   0.023554   0.000000   0.000000   0.004046
   65  CL 5  Z    0.008505   0.000000   0.018110   0.019875   0.000000
   66  CL 5  S    0.000000  -0.069443   0.000000   0.000000   0.126666
   67  CL 5  X    0.000000  -0.058219   0.000000   0.000000  -0.047237
   68  CL 5  Y    0.000000  -0.065905   0.000000   0.000000  -0.019836
   69  CL 5  Z   -0.012407   0.000000  -0.056132  -0.080494   0.000000
   70  CL 5  S    0.000000  -0.150319   0.000000   0.000000   0.085050
   71  CL 5  X    0.000000   0.072981   0.000000   0.000000  -0.156643
   72  CL 5  Y    0.000000  -0.171907   0.000000   0.000000   0.175159
   73  CL 5  Z   -0.170996   0.000000  -0.020129   0.246172   0.000000
   74  CL 5 XX    0.000000  -0.016880   0.000000   0.000000  -0.010567
   75  CL 5 YY    0.000000   0.023947   0.000000   0.000000   0.007090
   76  CL 5 ZZ    0.000000  -0.006910   0.000000   0.000000   0.020471
   77  CL 5 XY    0.000000  -0.003447   0.000000   0.000000   0.035979
   78  CL 5 XZ   -0.004125   0.000000  -0.002938  -0.008649   0.000000
   79  CL 5 YZ    0.061198   0.000000   0.018891  -0.060198   0.000000
   80  H  6  S    0.000000  -0.002203   0.000000   0.000000   0.017325
   81  H  6  S    0.000000   0.684901   0.000000   0.000000  -0.827307
   82  H  7  S    0.016171  -0.036280   0.055508   0.010768   0.023634
   83  H  7  S    0.255121  -0.775157   1.398073   0.053260   0.991245
   84  H  8  S   -0.016171  -0.036280  -0.055508  -0.010768   0.023634
   85  H  8  S   -0.255121  -0.775157  -1.398073  -0.053260   0.991245
   86  H  9  S    0.078621  -0.014465  -0.019078   0.022598  -0.003596
   87  H  9  S    1.239646  -0.431433  -0.720198   0.078246  -1.012721
   88  H 10  S   -0.078621  -0.014465   0.019078  -0.022598  -0.003596
   89  H 10  S   -1.239646  -0.431433   0.720198  -0.078246  -1.012721
   90  H 11  S    0.000000   0.025378   0.000000   0.000000   0.005687
   91  H 11  S    0.000000   0.676996   0.000000   0.000000  -1.147852
   92  H 12  S    0.000000   0.064977   0.000000   0.000000   0.021416
   93  H 12  S    0.000000   1.355046   0.000000   0.000000   1.310861

                     36         37         38         39         40
                    0.3175     0.4036     0.4413     0.4579     0.4795
                     A'         A'         A'         A''        A'  
    1  C  1  S   -0.076328  -0.022413  -0.030648   0.000000   0.009835
    2  C  1  S   -0.040106   0.062773   0.209496   0.000000  -0.018929
    3  C  1  X   -0.150251  -0.124958  -0.005121   0.000000   0.063442
    4  C  1  Y   -0.014438   0.196156  -0.125644   0.000000  -0.001683
    5  C  1  Z    0.000000   0.000000   0.000000  -0.070364   0.000000
    6  C  1  S    2.805982   0.190988  -0.565902   0.000000  -0.171551
    7  C  1  X   -1.951787  -0.305172  -0.259881   0.000000   0.105255
    8  C  1  Y    0.556818   0.617677   0.607971   0.000000  -0.275479
    9  C  1  Z    0.000000   0.000000   0.000000  -0.119597   0.000000
   10  C  1 XX   -0.021065   0.003395   0.021000   0.000000   0.001695
   11  C  1 YY    0.027870  -0.038891  -0.068956   0.000000  -0.022374
   12  C  1 ZZ   -0.004521   0.007341   0.034189   0.000000   0.026681
   13  C  1 XY   -0.011078   0.030290   0.064879   0.000000  -0.030830
   14  C  1 XZ    0.000000   0.000000   0.000000   0.033193   0.000000
   15  C  1 YZ    0.000000   0.000000   0.000000  -0.005151   0.000000
   16  C  2  S    0.079809   0.010226   0.011657   0.002080  -0.007037
   17  C  2  S    0.036563  -0.067432  -0.097440   0.004746   0.041813
   18  C  2  X   -0.032875  -0.137071  -0.020381   0.293080   0.065647
   19  C  2  Y   -0.106524   0.115237   0.155557  -0.192982  -0.017031
   20  C  2  Z   -0.114622   0.013413  -0.013977  -0.082942   0.192473
[...]
 12   H            X  0.00000235  0.09242128  0.00000250  0.03327197 -0.00000475
                   Y -0.00000152 -0.14539585 -0.00000613 -0.12461782  0.00001366
                   Z  0.36582625 -0.00000532  0.06094199  0.00003163  0.56692851

 TRANS. SAYVETZ    X  0.00004810  0.00005226 -0.00002314  0.00008532 -0.00004203
                   Y  0.00004822  0.00006821 -0.00002431  0.00011432 -0.00004320
                   Z -0.00000491 -0.00000044 -0.00000263 -0.00000049  0.00000606
               TOTAL  0.00006829  0.00008593  0.00003367  0.00014265  0.00006058

   ROT. SAYVETZ    X  0.00373908 -0.00000137 -0.00296820  0.00000014  0.00316809
                   Y  0.00001350 -0.00000286  0.00242398  0.00000004  0.00087503
                   Z -0.00000005  0.00180552  0.00000197  0.00157903  0.00000062
               TOTAL  0.00373910  0.00180553  0.00383222  0.00157903  0.00328671

                           21          22          23          24          25
       FREQUENCY:      1244.35     1262.69     1267.57     1284.17     1310.71  
        SYMMETRY:         A'          A''         A''         A'          A'' 
    REDUCED MASS:      1.28517     1.23136     1.22612     1.44953     1.41219
    IR INTENSITY:      0.06430     0.00303     0.00563     0.04759     0.00566

  1   C            X -0.06824908  0.00000877  0.00000527  0.03061598  0.00000028
                   Y -0.00699598  0.00000082 -0.00000007  0.03047315  0.00000035
                   Z  0.00000033  0.00030938  0.05040465  0.00000335 -0.10921259
  2   C            X -0.01284021  0.08756919  0.02426483 -0.10088460 -0.01134286
                   Y -0.03322279 -0.01338209 -0.00864081  0.03530568 -0.04817989
                   Z  0.00468651  0.00925180  0.01101792  0.00210583  0.03827322
  3   C            X -0.01285259 -0.08755888 -0.02425528 -0.10089783  0.01134255
                   Y -0.03322799  0.01338076  0.00863921  0.03531109  0.04817990
                   Z -0.00467941  0.00925361  0.01101919 -0.00210607  0.03827310
  4   C            X  0.06176285 -0.00000637 -0.00000475  0.04814699 -0.00000000
                   Y  0.09190849 -0.00000331 -0.00000185 -0.02455580 -0.00000029
                   Z -0.00001126 -0.02549793 -0.10993762 -0.00000539 -0.07926289
  5   CL           X  0.00301994 -0.00000051 -0.00000036  0.00215035  0.00000001
                   Y  0.00418243 -0.00000089 -0.00000065  0.00441200 -0.00000001
                   Z  0.00000003 -0.00035979 -0.00050754 -0.00000006  0.00177536
  6   H            X  0.11148276 -0.00002856 -0.00002339  0.27845696  0.00000107
                   Y -0.24806906  0.00005074  0.00003788 -0.28322142 -0.00000045
                   Z -0.00002724 -0.02530924 -0.45703274 -0.00002333  0.64047275
  7   H            X -0.22621207 -0.17549040 -0.21311791  0.39262239  0.04599339
                   Y  0.21565744  0.08494971  0.14852912 -0.23371232  0.03836164
                   Z  0.06167863 -0.04305282  0.00439761  0.05230858  0.11670605
  8   H            X -0.22619751  0.17547865  0.21309822  0.39267382 -0.04599119
                   Y  0.21566420 -0.08495002 -0.14852231 -0.23375291 -0.03836299
                   Z -0.06168912 -0.04304175  0.00440657 -0.05230923  0.11670569
  9   H            X  0.35305314 -0.36708100  0.12487479  0.14507208 -0.09325812
                   Y -0.25783456  0.26926570 -0.07836228 -0.11039398  0.05154252
                   Z -0.04739054  0.06998740  0.02117394 -0.04779009 -0.09271571
 10   H            X  0.35308702  0.36701665 -0.12491850  0.14510195  0.09325577
                   Y -0.25786703 -0.26921893  0.07839445 -0.11041370 -0.05154092
                   Z  0.04740855  0.06998527  0.02117072  0.04780115 -0.09271525
 11   H            X -0.16427656  0.00000863  0.00000577 -0.01809935  0.00000043
                   Y  0.15881797 -0.00000754 -0.00000467 -0.00950353 -0.00000040
                   Z -0.00000434 -0.34837273  0.56289025  0.00000940  0.40923582
 12   H            X  0.07742522 -0.00000764 -0.00000559  0.05426803  0.00000000
                   Y -0.19132772  0.00001569  0.00001207 -0.08345631  0.00000063
                   Z  0.00006906  0.41186677  0.30706370  0.00003171  0.17344930

 TRANS. SAYVETZ    X -0.00000440  0.00003018  0.00002079 -0.00006477  0.00000121
                   Y -0.00001881  0.00002930  0.00002000 -0.00009128  0.00000063
                   Z  0.00000050  0.00000397  0.00000319 -0.00000099  0.00001755
               TOTAL  0.00001933  0.00004225  0.00002902  0.00011193  0.00001760

   ROT. SAYVETZ    X  0.00000046 -0.00227156  0.00229481 -0.00000261  0.00019168
                   Y  0.00000122 -0.00008186  0.00210038 -0.00000188  0.00065721
                   Z  0.00039018 -0.00000059 -0.00000120  0.00310159 -0.00000174
               TOTAL  0.00039018  0.00227304  0.00311091  0.00310159  0.00068459

                           26          27          28          29          30
       FREQUENCY:      1331.35     1506.34     1515.90     1539.05     3078.16  
        SYMMETRY:         A'          A''         A'          A'          A'  
    REDUCED MASS:      1.25707     1.09250     1.08374     1.13107     1.05829
    IR INTENSITY:      1.14797     0.04288     0.07585     0.02976     0.79395

  1   C            X  0.03880879 -0.00000346 -0.00166988  0.01521418  0.00166980
                   Y -0.09302134 -0.00000347  0.00362097 -0.01564648  0.00173321
                   Z -0.00000105 -0.00332886  0.00000003 -0.00000000  0.00000002
  2   C            X -0.02940807 -0.01026225  0.00356756 -0.00977629  0.00069571
                   Y  0.05318645 -0.01455448  0.01121455 -0.00599929  0.00172642
                   Z -0.00379211 -0.05653811  0.03360767 -0.05292778 -0.01087569
  3   C            X -0.02940483  0.01026361  0.00356757 -0.00977624  0.00069593
                   Y  0.05318395  0.01455553  0.01121469 -0.00599920  0.00172679
                   Z  0.00379363 -0.05653853 -0.03360781  0.05292759  0.01087487
  4   C            X  0.01560663  0.00000010 -0.03736633 -0.04375879  0.03184954
                   Y  0.00135802 -0.00000007  0.04923876  0.04066766 -0.05545120
                   Z  0.00000026 -0.00354979  0.00000008 -0.00000001 -0.00000000
  5   CL           X -0.00336574  0.00000002 -0.00015610 -0.00065636  0.00001761
                   Y -0.00769488  0.00000007 -0.00014476  0.00035897  0.00001246
                   Z  0.00000001 -0.00005244  0.00000000 -0.00000000  0.00000000
  6   H            X -0.46598372 -0.00000673 -0.00261726 -0.01995168 -0.02502168
                   Y  0.55832349 -0.00000128  0.00899320  0.03319688 -0.01965809
                   Z  0.00000427  0.00223933  0.00000002  0.00000010  0.00000000
  7   H            X  0.04567229  0.22403076 -0.13533631  0.17804958 -0.04767698
                   Y -0.07818248  0.32304037 -0.20095146  0.24764186 -0.07140509
                   Z -0.05205489  0.25242459 -0.15800737  0.18015011  0.11711662
  8   H            X  0.04565848 -0.22403670 -0.13533642  0.17804880 -0.04767379
                   Y -0.07816487 -0.32303911 -0.20095188  0.24764099 -0.07140085
                   Z  0.05205207  0.25242701  0.15800760 -0.18014937 -0.11710969
  9   H            X  0.28640534 -0.09418659  0.06242029 -0.06900637  0.03523799
                   Y -0.17025772 -0.11884056  0.07559848 -0.09574843  0.05519428
                   Z  0.03292407  0.46135884 -0.28889855  0.35727801  0.01550976
 10   H            X  0.28639773  0.09419367  0.06242045 -0.06900602  0.03523221
                   Y -0.17025524  0.11883686  0.07559867 -0.09574807  0.05518563
                   Z -0.03292978  0.46135593  0.28889883 -0.35727669 -0.01550718
 11   H            X -0.04432508 -0.00000080  0.52424889  0.40885033  0.22115465
                   Y  0.02135467  0.00000027 -0.12893110 -0.10382920  0.70115193
                   Z -0.00000118 -0.00503216  0.00000069  0.00000043 -0.00000004
 12   H            X  0.01527332  0.00000002  0.00944415 -0.01150402 -0.58754593
                   Y  0.00899792  0.00000095 -0.52081161 -0.40065190 -0.05101278
                   Z -0.00000402  0.00535423 -0.00000037  0.00000011  0.00000011

 TRANS. SAYVETZ    X -0.00004444 -0.00002991 -0.00001334  0.00002247 -0.00000337
                   Y -0.00006195 -0.00003015 -0.00002579  0.00001643 -0.00000701
                   Z -0.00000031  0.00002138  0.00000053  0.00000015 -0.00000007
               TOTAL  0.00007624  0.00004754  0.00002904  0.00002783  0.00000778

   ROT. SAYVETZ    X -0.00000078 -0.00301870  0.00000136  0.00000066 -0.00000025
                   Y  0.00000020  0.00348757  0.00000093  0.00000068 -0.00000004
                   Z -0.00116491  0.00000155  0.00249132 -0.00092649 -0.00017803
               TOTAL  0.00116491  0.00461255  0.00249132  0.00092649  0.00017803

                           31          32          33          34          35
       FREQUENCY:      3084.18     3088.26     3115.71     3126.41     3139.08  
        SYMMETRY:         A''         A'          A'          A'          A'' 
    REDUCED MASS:      1.05730     1.06097     1.09549     1.10430     1.11011
    IR INTENSITY:      1.09414     0.04181     0.11919     0.10740     0.38242

  1   C            X  0.00000046  0.00236800 -0.05095253  0.03208261  0.00000087
                   Y  0.00000030 -0.00122057 -0.03884715  0.02357677  0.00000070
                   Z -0.00111452 -0.00000000 -0.00000003  0.00000000  0.00026657
  2   C            X  0.00898683 -0.00948205  0.01789005  0.00601711  0.03424498
                   Y  0.01488086 -0.01553287  0.02525915  0.00878850  0.04977758
                   Z  0.04271981 -0.04198653 -0.01403955 -0.00932182 -0.02324864
  3   C            X -0.00898700 -0.00948200  0.01788935  0.00601802 -0.03424578
                   Y -0.01488110 -0.01553277  0.02525770  0.00879008 -0.04977874
                   Z  0.04272026  0.04198621  0.01403974  0.00932206 -0.02324903
  4   C            X  0.00000027  0.00078451 -0.02573176 -0.06638265 -0.00000089
                   Y -0.00000052  0.01899692 -0.01423290 -0.03943472 -0.00000068
                   Z -0.00108375  0.00000001 -0.00000006  0.00000004  0.00041509
  5   CL           X -0.00000000 -0.00003278  0.00017351 -0.00010836 -0.00000000
                   Y  0.00000000  0.00020282 -0.00007052 -0.00003630  0.00000000
                   Z  0.00001714 -0.00000000 -0.00000001  0.00000000 -0.00000341
  6   H            X -0.00000745 -0.00732846  0.59591521 -0.36431141 -0.00000803
                   Y -0.00000571 -0.00545819  0.46278495 -0.28243440 -0.00000633
                   Z  0.00022191  0.00000001 -0.00000007  0.00000007 -0.00293347
  7   H            X  0.16391304 -0.15594404 -0.09541776 -0.04557150 -0.16572762
                   Y  0.22826587 -0.21572128 -0.12954991 -0.06694037 -0.23053137
                   Z -0.37061064  0.35484032  0.22673665  0.11301099  0.40151488
  8   H            X -0.16391455 -0.15594280 -0.09541816 -0.04557370  0.16573100
                   Y -0.22826809 -0.21571956 -0.12954832 -0.06694468  0.23053588
                   Z -0.37061417 -0.35483753 -0.22673380 -0.11301856  0.40152286
  9   H            X -0.26986018  0.26557745 -0.11109965 -0.02832279 -0.23942877
                   Y -0.40698533  0.39901823 -0.17108607 -0.03749820 -0.36213005
                   Z -0.12639864  0.12455477 -0.05907126 -0.01425866 -0.12609938
 10   H            X  0.26986360  0.26557552 -0.11109020 -0.02833183  0.23943466
                   Y  0.40699054  0.39901532 -0.17107179 -0.03751195  0.36213924
                   Z -0.12640028 -0.12455387  0.05906780  0.01426252 -0.12610255
 11   H            X  0.00000206 -0.06629106  0.04349655  0.12310971  0.00000219
                   Y  0.00000652 -0.21788789  0.15659749  0.43881656  0.00000774
                   Z -0.00132076 -0.00000001 -0.00000001 -0.00000010 -0.00396815
 12   H            X -0.00000517  0.04376877  0.25463473  0.65787679  0.00000849
                   Y -0.00000046  0.00796098  0.01483554  0.03329389  0.00000042
                   Z  0.00338169 -0.00000007 -0.00000029  0.00000012  0.00170668

 TRANS. SAYVETZ    X -0.00000196  0.00001270 -0.00000660  0.00001078  0.00000204
                   Y -0.00000207  0.00001168 -0.00000459  0.00000883  0.00000206
                   Z -0.00000003 -0.00000010  0.00000004 -0.00000011 -0.00000079
               TOTAL  0.00000285  0.00001726  0.00000804  0.00001394  0.00000300

   ROT. SAYVETZ    X  0.00041509 -0.00000017 -0.00000010 -0.00000019  0.00051856
                   Y -0.00033802 -0.00000016 -0.00000020 -0.00000000 -0.00064004
                   Z  0.00000023 -0.00051004  0.00005445 -0.00024116 -0.00000066
               TOTAL  0.00053531  0.00051004  0.00005445  0.00024116  0.00082375

                           36
       FREQUENCY:      3149.93  
        SYMMETRY:         A'  
    REDUCED MASS:      1.10615
    IR INTENSITY:      1.26246

  1   C            X -0.02522452
                   Y -0.01878946
                   Z -0.00000002
  2   C            X -0.02826844
                   Y -0.04171763
                   Z  0.01701068
  3   C            X -0.02826769
                   Y -0.04171675
                   Z -0.01701004
  4   C            X -0.02805677
                   Y -0.02554576
                   Z -0.00000003
  5   CL           X  0.00013312
                   Y  0.00009026
                   Z -0.00000000
  6   H            X  0.28640879
                   Y  0.21834903
                   Z -0.00000001
  7   H            X  0.12674586
                   Y  0.17715506
                   Z -0.30918590
  8   H            X  0.12674124
                   Y  0.17714967
                   Z  0.30917644
  9   H            X  0.21244687
                   Y  0.32114309
                   Z  0.11378438
 10   H            X  0.21244300
                   Y  0.32113723
                   Z -0.11378169
 11   H            X  0.07948513
                   Y  0.29041926
                   Z  0.00000001
 12   H            X  0.25868135
                   Y  0.01283737
                   Z -0.00000015

 TRANS. SAYVETZ    X -0.00000600
                   Y -0.00000850
                   Z  0.00000001
               TOTAL  0.00001040

   ROT. SAYVETZ    X -0.00000022
                   Y -0.00000007
                   Z -0.00043933
               TOTAL  0.00043933

 REFERENCE ON SAYVETZ CONDITIONS - A. SAYVETZ, J.CHEM.PHYS., 7, 383-389(1939).

 NOTE - THE MODES J,K ARE ORTHONORMALIZED ACCORDING TO
 SUM ON I   M(I) * (X(I,J)*X(I,K) + Y(I,J)*Y(I,K) + Z(I,J)*Z(I,K)) = DELTA(J,K)

  MODE FREQ(CM**-1)  SYMMETRY  RED. MASS  IR INTENS.
     1       0.074    A''      7.491503    0.000000
     2       0.016    A'       7.502240    0.000000
     3       0.046    A''      7.491758    0.000000
     4       9.250    A'       5.874555    0.028987
     5      10.393    A''      5.480546    0.026955
     6      14.445    A''      2.388016    0.001162
     7     157.702    A'       2.152789    0.019315
     8     282.824    A''      3.541176    0.023342
     9     366.233    A'       3.490920    0.163426
    10     526.544    A'       2.611289    0.165166
    11     728.648    A'       1.609093    0.369970
    12     795.440    A''      1.180822    0.018484
    13     844.383    A'       2.690688    1.245436
    14     921.740    A''      2.731882    0.007112
    15     922.701    A'       2.029326    0.020655
    16     960.637    A''      1.297419    0.057876
    17    1035.985    A'       3.184459    0.408751
    18    1056.376    A''      1.935482    0.012671
    19    1132.152    A'       2.015003    0.003024
    20    1204.206    A''      1.315408    0.021885
    21    1244.350    A'       1.285173    0.064303
    22    1262.695    A''      1.231360    0.003032
    23    1267.574    A''      1.226123    0.005628
    24    1284.174    A'       1.449530    0.047593
    25    1310.713    A''      1.412189    0.005663
    26    1331.354    A'       1.257074    1.147970
    27    1506.336    A''      1.092503    0.042884
    28    1515.898    A'       1.083741    0.075852
    29    1539.053    A'       1.131066    0.029757
    30    3078.158    A'       1.058295    0.793953
    31    3084.176    A''      1.057298    1.094144
    32    3088.264    A'       1.060968    0.041814
    33    3115.715    A'       1.095494    0.119192
    34    3126.413    A'       1.104299    0.107399
    35    3139.082    A''      1.110113    0.382418
    36    3149.927    A'       1.106151    1.262461

     -------------------------------
     THERMOCHEMISTRY AT T=  298.15 K
     -------------------------------

 USING IDEAL GAS, RIGID ROTOR, HARMONIC NORMAL MODE APPROXIMATIONS.
 P=  1.01325E+05 PASCAL.
 ALL FREQUENCIES ARE SCALED BY   1.00000
 THE MOMENTS OF INERTIA ARE (IN AMU*BOHR**2)
            179.82984           731.44652           838.40073
 THE ROTATIONAL SYMMETRY NUMBER IS  1.0
 THE ROTATIONAL CONSTANTS ARE (IN GHZ)
     10.02664     2.46510     2.15063
      7 -     36 VIBRATIONAL MODES ARE USED IN THERMOCHEMISTRY.
 THE HARMONIC ZERO POINT ENERGY IS (SCALED BY   1.000)
        0.102471 HARTREE/MOLECULE    22489.727894 CM**-1/MOLECULE 
       64.301423 KCAL/MOL              269.037155 KJ/MOL

               Q               LN Q
 ELEC.     1.00000E+00       0.000000
 TRANS.    3.35729E+07      17.329229
 ROT.      1.18875E+05      11.685825
 VIB.      3.78354E+00       1.330660
 TOT.      1.51000E+13      30.345714

              E         H         G         CV        CP        S
           KJ/MOL    KJ/MOL    KJ/MOL   J/MOL-K   J/MOL-K   J/MOL-K
 ELEC.      0.000     0.000     0.000     0.000     0.000     0.000
 TRANS.     3.718     6.197   -42.958    12.472    20.786   164.868
 ROT.       3.718     3.718   -28.968    12.472    12.472   109.632
 VIB.     274.805   274.805   265.739    50.109    50.109    30.410
 TOTAL    282.242   284.721   193.812    75.052    83.367   304.911
 VIB. THERMAL CORRECTION E(T)-E(0) = H(T)-H(0) =      5768.195 J/MOL

              E         H         G         CV        CP        S
         KCAL/MOL  KCAL/MOL  KCAL/MOL CAL/MOL-K CAL/MOL-K CAL/MOL-K
 ELEC.      0.000     0.000     0.000     0.000     0.000     0.000
 TRANS.     0.889     1.481   -10.267     2.981     4.968    39.404
 ROT.       0.889     0.889    -6.924     2.981     2.981    26.203
 VIB.      65.680    65.680    63.513    11.976    11.976     7.268
 TOTAL     67.457    68.050    46.322    17.938    19.925    72.875
 VIB. THERMAL CORRECTION E(T)-E(0) = H(T)-H(0) =      1378.632 CAL/MOL
 ......END OF NORMAL COORDINATE ANALYSIS......
 STEP CPU TIME =     0.00 TOTAL CPU TIME =       1442.6 (     24.0 MIN)
 TOTAL WALL CLOCK TIME=       1448.8 SECONDS, CPU UTILIZATION IS    99.58%
               1121862  WORDS OF DYNAMIC MEMORY USED
 EXECUTION OF GAMESS TERMINATED NORMALLY Sun Oct 30 20:31:29 2022
 DDI: 263640 bytes (0.3 MB / 0 MWords) used by master data server.

 ----------------------------------------
 CPU timing information for all processes
 ========================================
 0: 1438.849 + 3.805 = 1442.655
 ----------------------------------------
 ddikick.x: exited gracefully.
----- accounting info -----
Files used on the master node chemcompute-node-0.novalocal were:
-rw-r--r--. 1 chemcomp chemcomp      985 Oct 30 20:07 /scratch/141367/483417.F05
-rw-rw-r--. 1 chemcomp chemcomp 70451200 Oct 30 20:31 /scratch/141367/483417.F10
-rw-rw-r--. 1 chemcomp chemcomp  6038704 Oct 30 20:31 /scratch/141367/483417.F22
Sun Oct 30 20:31:32 UTC 2022
0.095u 0.043s 24:12.11 0.0%	0+0k 8+208io 0pf+0w
Finishing Up...
Looking for IR data...
Looking for Raman data...
vibramans not found
Looking for thermodynamics data...
Looking for UV-Vis data...
chemcompute.org
{'UTCtimestamp': '2022-10-30T20:31:34.420531', 'cluster': 'jetstream2', 'clusterJobNumber': '141367', 'status': 'COMPLETE', 'nodeList': 'chemcompute-node-0'}
141367
